    5    5    1    2
  0.1275910E+02  0.3995574E-09  0.3994131E-09  0.3997503E-09  0.5000000E-15
  1.000000000000000E-004
  CAR 
 unknown system                          
     16    172     20
 
  0.0000000E+00  0.0000000E+00  0.0000000E+00  0.2915452E-02
    1      -21.729901    -21.729901   1.000000   1.000000
    2       -9.219726     -9.219726   1.000000   1.000000
    3       -3.733443     -3.733443   1.000000   1.000000
    4       -3.732891     -3.732891   1.000000   1.000000
    5       -3.732370     -3.732370   1.000000   1.000000
    6        1.742469      1.742469   1.000000   1.000000
    7        1.746108      1.746108   1.000000   1.000000
    8        1.748785      1.748785   1.000000   1.000000
    9        6.149726      6.149726   0.000000   0.000000
   10        7.992386      7.992386   0.000000   0.000000
   11        7.997967      7.997967   0.000000   0.000000
   12       12.356061     12.356061   0.000000   0.000000
   13       12.361943     12.361943   0.000000   0.000000
   14       12.364265     12.364265   0.000000   0.000000
   15       13.113541     13.113541   0.000000   0.000000
   16       13.116906     13.116906   0.000000   0.000000
   17       13.119707     13.119707   0.000000   0.000000
   18       13.593261     13.593261   0.000000   0.000000
   19       13.599896     13.599896   0.000000   0.000000
   20       13.604949     13.604949   0.000000   0.000000
 
  0.1428571E+00 -0.2578124E-20 -0.5077129E-16  0.5830904E-02
    1      -21.733571    -21.733571   1.000000   1.000000
    2       -9.193218     -9.193218   1.000000   1.000000
    3       -3.711975     -3.711975   1.000000   1.000000
    4       -3.710842     -3.710842   1.000000   1.000000
    5       -3.670491     -3.670491   1.000000   1.000000
    6        1.201111      1.201111   1.000000   1.000000
    7        1.767548      1.767548   1.000000   1.000000
    8        1.774087      1.774087   1.000000   1.000000
    9        6.474950      6.474950   0.000000   0.000000
   10        7.896037      7.896037   0.000000   0.000000
   11        8.724063      8.724063   0.000000   0.000000
   12       11.185599     11.185599   0.000000   0.000000
   13       11.195658     11.195658   0.000000   0.000000
   14       12.073192     12.073192   0.000000   0.000000
   15       12.610716     12.610716   0.000000   0.000000
   16       12.613835     12.613836   0.000000   0.000000
   17       13.269008     13.269008   0.000000   0.000000
   18       13.764382     13.764382   0.000000   0.000000
   19       15.715520     15.715521   0.000000   0.000000
   20       15.725843     15.725843   0.000000   0.000000
 
  0.2857143E+00 -0.2807890E-20 -0.1023015E-15  0.5830904E-02
    1      -21.741823    -21.741823   1.000000   1.000000
    2       -9.131798     -9.131798   1.000000   1.000000
    3       -3.662863     -3.662863   1.000000   1.000000
    4       -3.661501     -3.661501   1.000000   1.000000
    5       -3.513002     -3.513002   1.000000   1.000000
    6        0.255116      0.255116   1.000000   1.000000
    7        1.826362      1.826362   1.000000   1.000000
    8        1.833461      1.833461   1.000000   1.000000
    9        6.925767      6.925767   0.000000   0.000000
   10        7.692593      7.692593   0.000000   0.000000
   11        9.836989      9.836989   0.000000   0.000000
   12        9.846576      9.846576   0.000000   0.000000
   13       10.579784     10.579784   0.000000   0.000000
   14       11.569479     11.569479   0.000000   0.000000
   15       12.515833     12.515833   0.000000   0.000000
   16       12.518650     12.518650   0.000000   0.000000
   17       13.585769     13.585769   0.000000   0.000000
   18       14.237907     14.237907   0.000000   0.000000
   19       18.134520     18.134520   0.000000   0.000000
   20       18.142630     18.142629   0.000000   0.000000
 
  0.4285714E+00 -0.5061151E-20 -0.1530593E-15  0.5830904E-02
    1      -21.748320    -21.748320   1.000000   1.000000
    2       -9.080584     -9.080584   1.000000   1.000000
    3       -3.622668     -3.622668   1.000000   1.000000
    4       -3.621105     -3.621105   1.000000   1.000000
    5       -3.359599     -3.359599   1.000000   1.000000
    6       -0.381847     -0.381847   1.000000   1.000000
    7        1.876339      1.876339   1.000000   1.000000
    8        1.883936      1.883936   1.000000   1.000000
    9        7.258307      7.258307   0.000000   0.000000
   10        7.544361      7.544361   0.000000   0.000000
   11        9.116674      9.116675   0.000000   0.000000
   12        9.125881      9.125881   0.000000   0.000000
   13       10.711989     10.711990   0.000000   0.000000
   14       12.448833     12.448833   0.000000   0.000000
   15       12.452065     12.452065   0.000000   0.000000
   16       13.524165     13.524165   0.000000   0.000000
   17       13.818949     13.818949   0.000000   0.000000
   18       14.852016     14.852016   0.000000   0.000000
   19       16.535497     16.535497   0.000000   0.000000
   20       17.356735     17.356735   0.000000   0.000000
 
  0.2288735E-20  0.1428571E+00 -0.2518540E-14  0.5830904E-02
    1      -21.733590    -21.733590   1.000000   1.000000
    2       -9.193101     -9.193101   1.000000   1.000000
    3       -3.711332     -3.711332   1.000000   1.000000
    4       -3.710735     -3.710735   1.000000   1.000000
    5       -3.671096     -3.671096   1.000000   1.000000
    6        1.202994      1.202994   1.000000   1.000000
    7        1.767684      1.767684   1.000000   1.000000
    8        1.771483      1.771483   1.000000   1.000000
    9        6.474025      6.474025   0.000000   0.000000
   10        7.894247      7.894247   0.000000   0.000000
   11        8.728016      8.728016   0.000000   0.000000
   12       11.188389     11.188389   0.000000   0.000000
   13       11.193950     11.193950   0.000000   0.000000
   14       12.075611     12.075611   0.000000   0.000000
   15       12.605393     12.605393   0.000000   0.000000
   16       12.610520     12.610521   0.000000   0.000000
   17       13.270236     13.270236   0.000000   0.000000
   18       13.759209     13.759209   0.000000   0.000000
   19       15.722381     15.722381   0.000000   0.000000
   20       15.727618     15.727618   0.000000   0.000000
 
  0.1428571E+00  0.1428571E+00 -0.2569302E-14  0.5830904E-02
    1      -21.737263    -21.737263   1.000000   1.000000
    2       -9.161822     -9.161822   1.000000   1.000000
    3       -3.716320     -3.716320   1.000000   1.000000
    4       -3.690985     -3.690985   1.000000   1.000000
    5       -3.601917     -3.601917   1.000000   1.000000
    6        1.144691      1.144691   1.000000   1.000000
    7        1.341260      1.341260   1.000000   1.000000
    8        1.802843      1.802843   1.000000   1.000000
    9        6.762837      6.762837   0.000000   0.000000
   10        8.301016      8.301016   0.000000   0.000000
   11        8.926529      8.926529   0.000000   0.000000
   12       10.258914     10.258914   0.000000   0.000000
   13       11.123793     11.123793   0.000000   0.000000
   14       11.259707     11.259707   0.000000   0.000000
   15       12.351514     12.351514   0.000000   0.000000
   16       12.604939     12.604939   0.000000   0.000000
   17       13.474928     13.474928   0.000000   0.000000
   18       15.152874     15.152874   0.000000   0.000000
   19       16.286279     16.286279   0.000000   0.000000
   20       16.510691     16.510691   0.000000   0.000000
 
  0.2857143E+00  0.1428571E+00 -0.2620841E-14  0.5830904E-02
    1      -21.745543    -21.745543   1.000000   1.000000
    2       -9.089109     -9.089109   1.000000   1.000000
    3       -3.680295     -3.680295   1.000000   1.000000
    4       -3.645926     -3.645926   1.000000   1.000000
    5       -3.485608     -3.485608   1.000000   1.000000
    6        0.315404      0.315404   1.000000   1.000000
    7        1.354928      1.354928   1.000000   1.000000
    8        1.886155      1.886155   1.000000   1.000000
    9        7.006942      7.006942   0.000000   0.000000
   10        8.392382      8.392382   0.000000   0.000000
   11        9.097017      9.097017   0.000000   0.000000
   12        9.813049      9.813049   0.000000   0.000000
   13       10.615563     10.615563   0.000000   0.000000
   14       11.228731     11.228731   0.000000   0.000000
   15       12.121503     12.121504   0.000000   0.000000
   16       12.752323     12.752323   0.000000   0.000000
   17       13.854619     13.854619   0.000000   0.000000
   18       15.635438     15.635438   0.000000   0.000000
   19       17.154948     17.154948   0.000000   0.000000
   20       17.657955     17.657955   0.000000   0.000000
 
  0.4285714E+00  0.1428571E+00 -0.2671592E-14  0.5830904E-02
    1      -21.752193    -21.752193   1.000000   1.000000
    2       -9.028180     -9.028180   1.000000   1.000000
    3       -3.635704     -3.635704   1.000000   1.000000
    4       -3.609151     -3.609151   1.000000   1.000000
    5       -3.396750     -3.396750   1.000000   1.000000
    6       -0.271219     -0.271219   1.000000   1.000000
    7        1.426088      1.426088   1.000000   1.000000
    8        1.957926      1.957926   1.000000   1.000000
    9        7.145738      7.145738   0.000000   0.000000
   10        8.337649      8.337649   0.000000   0.000000
   11        8.410659      8.410659   0.000000   0.000000
   12        9.079894      9.079894   0.000000   0.000000
   13       11.240730     11.240730   0.000000   0.000000
   14       11.417951     11.417951   0.000000   0.000000
   15       12.728287     12.728288   0.000000   0.000000
   16       13.608980     13.608980   0.000000   0.000000
   17       14.145117     14.145117   0.000000   0.000000
   18       15.825303     15.825303   0.000000   0.000000
   19       16.560826     16.560826   0.000000   0.000000
   20       16.670628     16.670628   0.000000   0.000000
 
 -0.4285714E+00  0.1428571E+00 -0.2365474E-14  0.5830904E-02
    1      -21.752204    -21.752204   1.000000   1.000000
    2       -9.028169     -9.028169   1.000000   1.000000
    3       -3.635647     -3.635647   1.000000   1.000000
    4       -3.609157     -3.609157   1.000000   1.000000
    5       -3.396858     -3.396858   1.000000   1.000000
    6       -0.271190     -0.271190   1.000000   1.000000
    7        1.426118      1.426118   1.000000   1.000000
    8        1.957944      1.957944   1.000000   1.000000
    9        7.145878      7.145878   0.000000   0.000000
   10        8.336997      8.336997   0.000000   0.000000
   11        8.410824      8.410824   0.000000   0.000000
   12        9.079934      9.079934   0.000000   0.000000
   13       11.240786     11.240786   0.000000   0.000000
   14       11.418182     11.418182   0.000000   0.000000
   15       12.728356     12.728356   0.000000   0.000000
   16       13.608944     13.608944   0.000000   0.000000
   17       14.145040     14.145040   0.000000   0.000000
   18       15.825016     15.825016   0.000000   0.000000
   19       16.561485     16.561485   0.000000   0.000000
   20       16.670088     16.670088   0.000000   0.000000
 
 -0.2857143E+00  0.1428571E+00 -0.2416238E-14  0.5830904E-02
    1      -21.745543    -21.745543   1.000000   1.000000
    2       -9.089084     -9.089084   1.000000   1.000000
    3       -3.680167     -3.680167   1.000000   1.000000
    4       -3.645939     -3.645939   1.000000   1.000000
    5       -3.485835     -3.485835   1.000000   1.000000
    6        0.315462      0.315462   1.000000   1.000000
    7        1.354990      1.354990   1.000000   1.000000
    8        1.886195      1.886195   1.000000   1.000000
    9        7.007038      7.007038   0.000000   0.000000
   10        8.392197      8.392197   0.000000   0.000000
   11        9.096196      9.096196   0.000000   0.000000
   12        9.813175      9.813175   0.000000   0.000000
   13       10.615758     10.615758   0.000000   0.000000
   14       11.228845     11.228845   0.000000   0.000000
   15       12.120620     12.120620   0.000000   0.000000
   16       12.753739     12.753739   0.000000   0.000000
   17       13.855442     13.855442   0.000000   0.000000
   18       15.635037     15.635037   0.000000   0.000000
   19       17.153509     17.153509   0.000000   0.000000
   20       17.658132     17.658132   0.000000   0.000000
 
 -0.1428571E+00  0.1428571E+00 -0.2467772E-14  0.5830904E-02
    1      -21.737274    -21.737274   1.000000   1.000000
    2       -9.161803     -9.161803   1.000000   1.000000
    3       -3.716176     -3.716176   1.000000   1.000000
    4       -3.690996     -3.690996   1.000000   1.000000
    5       -3.602131     -3.602131   1.000000   1.000000
    6        1.144775      1.144775   1.000000   1.000000
    7        1.341266      1.341266   1.000000   1.000000
    8        1.802874      1.802874   1.000000   1.000000
    9        6.762824      6.762824   0.000000   0.000000
   10        8.300947      8.300947   0.000000   0.000000
   11        8.926562      8.926562   0.000000   0.000000
   12       10.257575     10.257575   0.000000   0.000000
   13       11.124109     11.124109   0.000000   0.000000
   14       11.259653     11.259653   0.000000   0.000000
   15       12.350253     12.350253   0.000000   0.000000
   16       12.607228     12.607228   0.000000   0.000000
   17       13.476428     13.476428   0.000000   0.000000
   18       15.152922     15.152922   0.000000   0.000000
   19       16.285435     16.285435   0.000000   0.000000
   20       16.510240     16.510240   0.000000   0.000000
 
  0.8110723E-20  0.2857143E+00  0.2068778E-14  0.5830904E-02
    1      -21.741896    -21.741896   1.000000   1.000000
    2       -9.131404     -9.131404   1.000000   1.000000
    3       -3.662060     -3.662060   1.000000   1.000000
    4       -3.661332     -3.661332   1.000000   1.000000
    5       -3.513504     -3.513504   1.000000   1.000000
    6        0.255856      0.255856   1.000000   1.000000
    7        1.826826      1.826826   1.000000   1.000000
    8        1.831026      1.831026   1.000000   1.000000
    9        6.924051      6.924051   0.000000   0.000000
   10        7.690941      7.690941   0.000000   0.000000
   11        9.838014      9.838014   0.000000   0.000000
   12        9.843469      9.843469   0.000000   0.000000
   13       10.585633     10.585633   0.000000   0.000000
   14       11.572477     11.572477   0.000000   0.000000
   15       12.510041     12.510041   0.000000   0.000000
   16       12.515301     12.515301   0.000000   0.000000
   17       13.586165     13.586165   0.000000   0.000000
   18       14.233327     14.233327   0.000000   0.000000
   19       18.136420     18.136420   0.000000   0.000000
   20       18.141951     18.141951   0.000000   0.000000
 
  0.1428571E+00  0.2857143E+00  0.2018012E-14  0.5830904E-02
    1      -21.745586    -21.745586   1.000000   1.000000
    2       -9.088830     -9.088830   1.000000   1.000000
    3       -3.679825     -3.679825   1.000000   1.000000
    4       -3.645828     -3.645828   1.000000   1.000000
    5       -3.485863     -3.485863   1.000000   1.000000
    6        0.316005      0.316005   1.000000   1.000000
    7        1.353359      1.353359   1.000000   1.000000
    8        1.886507      1.886507   1.000000   1.000000
    9        7.006581      7.006581   0.000000   0.000000
   10        8.388352      8.388352   0.000000   0.000000
   11        9.095806      9.095806   0.000000   0.000000
   12        9.814182      9.814182   0.000000   0.000000
   13       10.621310     10.621310   0.000000   0.000000
   14       11.225851     11.225851   0.000000   0.000000
   15       12.122921     12.122921   0.000000   0.000000
   16       12.749420     12.749420   0.000000   0.000000
   17       13.854164     13.854164   0.000000   0.000000
   18       15.630968     15.630968   0.000000   0.000000
   19       17.152744     17.152744   0.000000   0.000000
   20       17.657549     17.657549   0.000000   0.000000
 
  0.2857143E+00  0.2857143E+00  0.1966486E-14  0.5830904E-02
    1      -21.754243    -21.754243   1.000000   1.000000
    2       -8.988778     -8.988778   1.000000   1.000000
    3       -3.686441     -3.686441   1.000000   1.000000
    4       -3.610627     -3.610627   1.000000   1.000000
    5       -3.470137     -3.470137   1.000000   1.000000
    6        0.356972      0.356972   1.000000   1.000000
    7        0.669003      0.669003   1.000000   1.000000
    8        2.030518      2.030518   1.000000   1.000000
    9        6.844170      6.844170   0.000000   0.000000
   10        8.030908      8.030908   0.000000   0.000000
   11        9.640120      9.640120   0.000000   0.000000
   12        9.957691      9.957691   0.000000   0.000000
   13       10.102829     10.102829   0.000000   0.000000
   14       10.991291     10.991291   0.000000   0.000000
   15       12.564793     12.564793   0.000000   0.000000
   16       13.232276     13.232276   0.000000   0.000000
   17       14.559206     14.559206   0.000000   0.000000
   18       15.366072     15.366072   0.000000   0.000000
   19       16.829946     16.829947   0.000000   0.000000
   20       18.597487     18.597492   0.000000   0.000000
 
  0.4285714E+00  0.2857143E+00  0.1915735E-14  0.5830904E-02
    1      -21.761016    -21.761016   1.000000   1.000000
    2       -8.903651     -8.903651   1.000000   1.000000
    3       -3.660456     -3.660456   1.000000   1.000000
    4       -3.582019     -3.582019   1.000000   1.000000
    5       -3.505391     -3.505391   1.000000   1.000000
    6       -0.007364     -0.007364   1.000000   1.000000
    7        0.684579      0.684579   1.000000   1.000000
    8        2.158031      2.158031   1.000000   1.000000
    9        6.773319      6.773319   0.000000   0.000000
   10        7.308842      7.308842   0.000000   0.000000
   11        8.991688      8.991688   0.000000   0.000000
   12        9.784961      9.784961   0.000000   0.000000
   13       10.526699     10.526699   0.000000   0.000000
   14       12.239686     12.239686   0.000000   0.000000
   15       13.278350     13.278350   0.000000   0.000000
   16       13.771519     13.771519   0.000000   0.000000
   17       14.851087     14.851087   0.000000   0.000000
   18       15.145917     15.145917   0.000000   0.000000
   19       16.235737     16.235737   0.000000   0.000000
   20       17.013777     17.013777   0.000000   0.000000
 
 -0.4285714E+00  0.2857143E+00  0.2221854E-14  0.5830904E-02
    1      -21.761016    -21.761016   1.000000   1.000000
    2       -8.903635     -8.903635   1.000000   1.000000
    3       -3.660348     -3.660348   1.000000   1.000000
    4       -3.582026     -3.582026   1.000000   1.000000
    5       -3.505561     -3.505561   1.000000   1.000000
    6       -0.007365     -0.007365   1.000000   1.000000
    7        0.684656      0.684656   1.000000   1.000000
    8        2.158054      2.158054   1.000000   1.000000
    9        6.773614      6.773615   0.000000   0.000000
   10        7.308318      7.308318   0.000000   0.000000
   11        8.991820      8.991820   0.000000   0.000000
   12        9.784877      9.784877   0.000000   0.000000
   13       10.526557     10.526557   0.000000   0.000000
   14       12.239901     12.239901   0.000000   0.000000
   15       13.277948     13.277948   0.000000   0.000000
   16       13.772193     13.772193   0.000000   0.000000
   17       14.850820     14.850820   0.000000   0.000000
   18       15.145315     15.145315   0.000000   0.000000
   19       16.236053     16.236053   0.000000   0.000000
   20       17.014878     17.014878   0.000000   0.000000
 
 -0.2857143E+00  0.2857143E+00  0.2171096E-14  0.5830904E-02
    1      -21.754243    -21.754243   1.000000   1.000000
    2       -8.988746     -8.988746   1.000000   1.000000
    3       -3.686293     -3.686293   1.000000   1.000000
    4       -3.610643     -3.610643   1.000000   1.000000
    5       -3.470416     -3.470416   1.000000   1.000000
    6        0.356911      0.356911   1.000000   1.000000
    7        0.669224      0.669223   1.000000   1.000000
    8        2.030570      2.030570   1.000000   1.000000
    9        6.844402      6.844402   0.000000   0.000000
   10        8.030041      8.030041   0.000000   0.000000
   11        9.640717      9.640717   0.000000   0.000000
   12        9.957245      9.957245   0.000000   0.000000
   13       10.102432     10.102432   0.000000   0.000000
   14       10.991772     10.991772   0.000000   0.000000
   15       12.563571     12.563571   0.000000   0.000000
   16       13.233903     13.233903   0.000000   0.000000
   17       14.559965     14.559965   0.000000   0.000000
   18       15.365339     15.365339   0.000000   0.000000
   19       16.830046     16.830046   0.000000   0.000000
   20       18.596964     18.596997   0.000000   0.000000
 
 -0.1428571E+00  0.2857143E+00  0.2119559E-14  0.5830904E-02
    1      -21.745597    -21.745597   1.000000   1.000000
    2       -9.088805     -9.088805   1.000000   1.000000
    3       -3.679697     -3.679697   1.000000   1.000000
    4       -3.645842     -3.645842   1.000000   1.000000
    5       -3.486089     -3.486089   1.000000   1.000000
    6        0.316050      0.316050   1.000000   1.000000
    7        1.353437      1.353437   1.000000   1.000000
    8        1.886547      1.886547   1.000000   1.000000
    9        7.006653      7.006653   0.000000   0.000000
   10        8.388233      8.388233   0.000000   0.000000
   11        9.094916      9.094916   0.000000   0.000000
   12        9.814297      9.814297   0.000000   0.000000
   13       10.621464     10.621464   0.000000   0.000000
   14       11.225974     11.225974   0.000000   0.000000
   15       12.122306     12.122306   0.000000   0.000000
   16       12.750643     12.750643   0.000000   0.000000
   17       13.854959     13.854959   0.000000   0.000000
   18       15.630478     15.630478   0.000000   0.000000
   19       17.151449     17.151449   0.000000   0.000000
   20       17.657704     17.657704   0.000000   0.000000
 
  0.5319328E-20  0.4285714E+00 -0.4497621E-15  0.5830904E-02
    1      -21.748406    -21.748406   1.000000   1.000000
    2       -9.079952     -9.079952   1.000000   1.000000
    3       -3.621728     -3.621728   1.000000   1.000000
    4       -3.620884     -3.620884   1.000000   1.000000
    5       -3.360026     -3.360026   1.000000   1.000000
    6       -0.381772     -0.381772   1.000000   1.000000
    7        1.877086      1.877086   1.000000   1.000000
    8        1.881658      1.881658   1.000000   1.000000
    9        7.256572      7.256572   0.000000   0.000000
   10        7.542835      7.542835   0.000000   0.000000
   11        9.116441      9.116441   0.000000   0.000000
   12        9.121981      9.121981   0.000000   0.000000
   13       10.713272     10.713272   0.000000   0.000000
   14       12.443269     12.443269   0.000000   0.000000
   15       12.448584     12.448584   0.000000   0.000000
   16       13.532595     13.532595   0.000000   0.000000
   17       13.819345     13.819345   0.000000   0.000000
   18       14.848394     14.848394   0.000000   0.000000
   19       16.546814     16.546814   0.000000   0.000000
   20       17.351656     17.351656   0.000000   0.000000
 
  0.1428571E+00  0.4285714E+00 -0.5005249E-15  0.5830904E-02
    1      -21.752281    -21.752281   1.000000   1.000000
    2       -9.027658     -9.027659   1.000000   1.000000
    3       -3.634910     -3.634910   1.000000   1.000000
    4       -3.608970     -3.608970   1.000000   1.000000
    5       -3.397178     -3.397178   1.000000   1.000000
    6       -0.271261     -0.271261   1.000000   1.000000
    7        1.424686      1.424686   1.000000   1.000000
    8        1.958595      1.958595   1.000000   1.000000
    9        7.145647      7.145647   0.000000   0.000000
   10        8.335071      8.335071   0.000000   0.000000
   11        8.406613      8.406613   0.000000   0.000000
   12        9.079974      9.079974   0.000000   0.000000
   13       11.237757     11.237757   0.000000   0.000000
   14       11.418867     11.418867   0.000000   0.000000
   15       12.724483     12.724483   0.000000   0.000000
   16       13.616836     13.616836   0.000000   0.000000
   17       14.144773     14.144773   0.000000   0.000000
   18       15.822552     15.822552   0.000000   0.000000
   19       16.571064     16.571064   0.000000   0.000000
   20       16.665862     16.665862   0.000000   0.000000
 
  0.2857143E+00  0.4285714E+00 -0.5520712E-15  0.5830904E-02
    1      -21.761050    -21.761050   1.000000   1.000000
    2       -8.903401     -8.903401   1.000000   1.000000
    3       -3.659980     -3.659980   1.000000   1.000000
    4       -3.581937     -3.581937   1.000000   1.000000
    5       -3.505752     -3.505752   1.000000   1.000000
    6       -0.007722     -0.007722   1.000000   1.000000
    7        0.684530      0.684530   1.000000   1.000000
    8        2.158363      2.158363   1.000000   1.000000
    9        6.773271      6.773271   0.000000   0.000000
   10        7.308061      7.308061   0.000000   0.000000
   11        8.991856      8.991856   0.000000   0.000000
   12        9.783657      9.783657   0.000000   0.000000
   13       10.520625     10.520625   0.000000   0.000000
   14       12.242350     12.242350   0.000000   0.000000
   15       13.276080     13.276080   0.000000   0.000000
   16       13.777053     13.777053   0.000000   0.000000
   17       14.850686     14.850686   0.000000   0.000000
   18       15.144868     15.144869   0.000000   0.000000
   19       16.237129     16.237129   0.000000   0.000000
   20       17.018697     17.018698   0.000000   0.000000
 
  0.4285714E+00  0.4285714E+00 -0.6028315E-15  0.5830904E-02
    1      -21.768072    -21.768072   1.000000   1.000000
    2       -8.795900     -8.795900   1.000000   1.000000
    3       -3.672062     -3.672062   1.000000   1.000000
    4       -3.624548     -3.624548   1.000000   1.000000
    5       -3.560019     -3.560019   1.000000   1.000000
    6        0.204100      0.204100   1.000000   1.000000
    7        0.269905      0.269905   1.000000   1.000000
    8        2.339749      2.339749   1.000000   1.000000
    9        6.525024      6.525024   0.000000   0.000000
   10        6.657107      6.657107   0.000000   0.000000
   11        8.895177      8.895177   0.000000   0.000000
   12        8.959736      8.959736   0.000000   0.000000
   13       12.532796     12.532797   0.000000   0.000000
   14       12.801056     12.801056   0.000000   0.000000
   15       13.928751     13.928751   0.000000   0.000000
   16       14.206481     14.206481   0.000000   0.000000
   17       14.330103     14.330103   0.000000   0.000000
   18       15.401580     15.401580   0.000000   0.000000
   19       16.076308     16.076308   0.000000   0.000000
   20       16.751759     16.751759   0.000000   0.000000
 
 -0.4285714E+00  0.4285714E+00 -0.2966927E-15  0.5830904E-02
    1      -21.768072    -21.768072   1.000000   1.000000
    2       -8.795893     -8.795893   1.000000   1.000000
    3       -3.671902     -3.671902   1.000000   1.000000
    4       -3.624737     -3.624737   1.000000   1.000000
    5       -3.560022     -3.560022   1.000000   1.000000
    6        0.203810      0.203810   1.000000   1.000000
    7        0.270230      0.270230   1.000000   1.000000
    8        2.339760      2.339760   1.000000   1.000000
    9        6.525523      6.525523   0.000000   0.000000
   10        6.656525      6.656525   0.000000   0.000000
   11        8.895932      8.895932   0.000000   0.000000
   12        8.958991      8.958991   0.000000   0.000000
   13       12.531632     12.531632   0.000000   0.000000
   14       12.802452     12.802452   0.000000   0.000000
   15       13.927415     13.927415   0.000000   0.000000
   16       14.207811     14.207811   0.000000   0.000000
   17       14.329998     14.329998   0.000000   0.000000
   18       15.401755     15.401755   0.000000   0.000000
   19       16.074686     16.074686   0.000000   0.000000
   20       16.753990     16.753990   0.000000   0.000000
 
 -0.2857143E+00  0.4285714E+00 -0.3474775E-15  0.5830904E-02
    1      -21.761050    -21.761050   1.000000   1.000000
    2       -8.903386     -8.903386   1.000000   1.000000
    3       -3.659872     -3.659872   1.000000   1.000000
    4       -3.581945     -3.581945   1.000000   1.000000
    5       -3.505922     -3.505922   1.000000   1.000000
    6       -0.007730     -0.007730   1.000000   1.000000
    7        0.684614      0.684614   1.000000   1.000000
    8        2.158386      2.158386   1.000000   1.000000
    9        6.773556      6.773556   0.000000   0.000000
   10        7.307549      7.307549   0.000000   0.000000
   11        8.991986      8.991986   0.000000   0.000000
   12        9.783574      9.783574   0.000000   0.000000
   13       10.520468     10.520468   0.000000   0.000000
   14       12.242477     12.242477   0.000000   0.000000
   15       13.276310     13.276310   0.000000   0.000000
   16       13.777107     13.777107   0.000000   0.000000
   17       14.850414     14.850414   0.000000   0.000000
   18       15.144236     15.144236   0.000000   0.000000
   19       16.237865     16.237865   0.000000   0.000000
   20       17.019436     17.019436   0.000000   0.000000
 
 -0.1428571E+00  0.4285714E+00 -0.3989806E-15  0.5830904E-02
    1      -21.752257    -21.752257   1.000000   1.000000
    2       -9.027647     -9.027647   1.000000   1.000000
    3       -3.634851     -3.634851   1.000000   1.000000
    4       -3.608976     -3.608976   1.000000   1.000000
    5       -3.397286     -3.397286   1.000000   1.000000
    6       -0.271237     -0.271237   1.000000   1.000000