       N       E                     dE             d eps       ncg     rms          rms(c)
DAV:   1    -0.204595040945E+02   -0.20460E+02   -0.86124E-06  8220   0.164E-02    0.340E-03
DAV:   2    -0.204595035611E+02    0.53340E-06   -0.63138E-07  7350   0.452E-03    0.107E-03
DAV:   3    -0.204595034417E+02    0.11938E-06   -0.19657E-07  7360   0.206E-03    0.464E-04
DAV:   4    -0.204595034482E+02   -0.65196E-08   -0.20115E-08  7200   0.760E-04    0.422E-04
DAV:   5    -0.204595034466E+02    0.16558E-08   -0.94827E-10  7260   0.179E-04    0.310E-04
DAV:   6    -0.204595034390E+02    0.75182E-08   -0.10174E-09  7080   0.208E-04    0.101E-04
DAV:   7    -0.204595034404E+02   -0.13341E-08   -0.12896E-10  6950   0.734E-05    0.335E-05
DAV:   8    -0.204595034406E+02   -0.20793E-09   -0.85909E-12  6970   0.185E-05
   1 F= -.20459503E+02 E0= -.20459503E+02  d E =0.000000E+00  mag=    -0.0000
