unknown system                          
           1
     3.995574   -0.000221    0.000432
    -0.000221    3.994131   -0.000249
     0.000432   -0.000248    3.997502
   Li   Se   F 
     3     1     1
Direct configuration=     1
   0.49469786  0.50145392  0.99738207
   0.49495597  0.00186747  0.49756042
   0.99527897  0.50448299  0.49540917
   0.99611985  0.00193620  0.99844001
   0.49569651  0.50201254  0.49802389
