   5   5   1   0
  0.1275910E+02  0.3995574E-09  0.3994131E-09  0.3997503E-09  0.5000000E-15
  1.000000000000000E-004
  CAR 
 unknown system                          
     20.61884697    -23.80764087  301      2.34509396      1.00000000
    -23.808  0.0000E+00  0.0000E+00  0.0000E+00  0.0000E+00
    -23.660  0.0000E+00  0.0000E+00  0.0000E+00  0.0000E+00
    -23.511  0.0000E+00  0.0000E+00  0.0000E+00  0.0000E+00
    -23.363  0.0000E+00  0.0000E+00  0.0000E+00  0.0000E+00
    -23.215  0.0000E+00  0.0000E+00  0.0000E+00  0.0000E+00
    -23.067  0.0000E+00  0.0000E+00  0.0000E+00  0.0000E+00
    -22.919  0.0000E+00  0.0000E+00  0.0000E+00  0.0000E+00
    -22.771  0.0000E+00  0.0000E+00  0.0000E+00  0.0000E+00
    -22.623  0.0000E+00  0.0000E+00  0.0000E+00  0.0000E+00
    -22.475  0.0000E+00  0.0000E+00  0.0000E+00  0.0000E+00
    -22.327  0.0000E+00  0.0000E+00  0.0000E+00  0.0000E+00
    -22.179  0.0000E+00  0.0000E+00  0.0000E+00  0.0000E+00
    -22.031  0.0000E+00  0.0000E+00  0.0000E+00  0.0000E+00
    -21.882  0.0000E+00  0.0000E+00  0.0000E+00  0.0000E+00
    -21.734  0.1086E+02  0.1086E+02  0.9929E+00  0.9929E+00
    -21.586  0.0000E+00  0.0000E+00  0.1000E+01  0.1000E+01
    -21.438  0.0000E+00  0.0000E+00  0.1000E+01  0.1000E+01
    -21.290  0.0000E+00  0.0000E+00  0.1000E+01  0.1000E+01
    -21.142  0.0000E+00  0.0000E+00  0.1000E+01  0.1000E+01
    -20.994  0.0000E+00  0.0000E+00  0.1000E+01  0.1000E+01
    -20.846  0.0000E+00  0.0000E+00  0.1000E+01  0.1000E+01
    -20.698  0.0000E+00  0.0000E+00  0.1000E+01  0.1000E+01
    -20.550  0.0000E+00  0.0000E+00  0.1000E+01  0.1000E+01
    -20.402  0.0000E+00  0.0000E+00  0.1000E+01  0.1000E+01
    -20.254  0.0000E+00  0.0000E+00  0.1000E+01  0.1000E+01
    -20.105  0.0000E+00  0.0000E+00  0.1000E+01  0.1000E+01
    -19.957  0.0000E+00  0.0000E+00  0.1000E+01  0.1000E+01
    -19.809  0.0000E+00  0.0000E+00  0.1000E+01  0.1000E+01
    -19.661  0.0000E+00  0.0000E+00  0.1000E+01  0.1000E+01
    -19.513  0.0000E+00  0.0000E+00  0.1000E+01  0.1000E+01
    -19.365  0.0000E+00  0.0000E+00  0.1000E+01  0.1000E+01
    -19.217  0.0000E+00  0.0000E+00  0.1000E+01  0.1000E+01
    -19.069  0.0000E+00  0.0000E+00  0.1000E+01  0.1000E+01
    -18.921  0.0000E+00  0.0000E+00  0.1000E+01  0.1000E+01
    -18.773  0.0000E+00  0.0000E+00  0.1000E+01  0.1000E+01
    -18.625  0.0000E+00  0.0000E+00  0.1000E+01  0.1000E+01
    -18.476  0.0000E+00  0.0000E+00  0.1000E+01  0.1000E+01
    -18.328  0.0000E+00  0.0000E+00  0.1000E+01  0.1000E+01
    -18.180  0.0000E+00  0.0000E+00  0.1000E+01  0.1000E+01
    -18.032  0.0000E+00  0.0000E+00  0.1000E+01  0.1000E+01
    -17.884  0.0000E+00  0.0000E+00  0.1000E+01  0.1000E+01
    -17.736  0.0000E+00  0.0000E+00  0.1000E+01  0.1000E+01
    -17.588  0.0000E+00  0.0000E+00  0.1000E+01  0.1000E+01
    -17.440  0.0000E+00  0.0000E+00  0.1000E+01  0.1000E+01
    -17.292  0.0000E+00  0.0000E+00  0.1000E+01  0.1000E+01
    -17.144  0.0000E+00  0.0000E+00  0.1000E+01  0.1000E+01
    -16.996  0.0000E+00  0.0000E+00  0.1000E+01  0.1000E+01
    -16.847  0.0000E+00  0.0000E+00  0.1000E+01  0.1000E+01
    -16.699  0.0000E+00  0.0000E+00  0.1000E+01  0.1000E+01
    -16.551  0.0000E+00  0.0000E+00  0.1000E+01  0.1000E+01
    -16.403  0.0000E+00  0.0000E+00  0.1000E+01  0.1000E+01
    -16.255  0.0000E+00  0.0000E+00  0.1000E+01  0.1000E+01
    -16.107  0.0000E+00  0.0000E+00  0.1000E+01  0.1000E+01
    -15.959  0.0000E+00  0.0000E+00  0.1000E+01  0.1000E+01
    -15.811  0.0000E+00  0.0000E+00  0.1000E+01  0.1000E+01
    -15.663  0.0000E+00  0.0000E+00  0.1000E+01  0.1000E+01
    -15.515  0.0000E+00  0.0000E+00  0.1000E+01  0.1000E+01
    -15.367  0.0000E+00  0.0000E+00  0.1000E+01  0.1000E+01
    -15.219  0.0000E+00  0.0000E+00  0.1000E+01  0.1000E+01
    -15.070  0.0000E+00  0.0000E+00  0.1000E+01  0.1000E+01
    -14.922  0.0000E+00  0.0000E+00  0.1000E+01  0.1000E+01
    -14.774  0.0000E+00  0.0000E+00  0.1000E+01  0.1000E+01
    -14.626  0.0000E+00  0.0000E+00  0.1000E+01  0.1000E+01
    -14.478  0.0000E+00  0.0000E+00  0.1000E+01  0.1000E+01
    -14.330  0.0000E+00  0.0000E+00  0.1000E+01  0.1000E+01
    -14.182  0.0000E+00  0.0000E+00  0.1000E+01  0.1000E+01
    -14.034  0.0000E+00  0.0000E+00  0.1000E+01  0.1000E+01
    -13.886  0.0000E+00  0.0000E+00  0.1000E+01  0.1000E+01
    -13.738  0.0000E+00  0.0000E+00  0.1000E+01  0.1000E+01
    -13.590  0.0000E+00  0.0000E+00  0.1000E+01  0.1000E+01
    -13.441  0.0000E+00  0.0000E+00  0.1000E+01  0.1000E+01
    -13.293  0.0000E+00  0.0000E+00  0.1000E+01  0.1000E+01
    -13.145  0.0000E+00  0.0000E+00  0.1000E+01  0.1000E+01
    -12.997  0.0000E+00  0.0000E+00  0.1000E+01  0.1000E+01
    -12.849  0.0000E+00  0.0000E+00  0.1000E+01  0.1000E+01
    -12.701  0.0000E+00  0.0000E+00  0.1000E+01  0.1000E+01
    -12.553  0.0000E+00  0.0000E+00  0.1000E+01  0.1000E+01
    -12.405  0.0000E+00  0.0000E+00  0.1000E+01  0.1000E+01
    -12.257  0.0000E+00  0.0000E+00  0.1000E+01  0.1000E+01
    -12.109  0.0000E+00  0.0000E+00  0.1000E+01  0.1000E+01
    -11.961  0.0000E+00  0.0000E+00  0.1000E+01  0.1000E+01
    -11.812  0.0000E+00  0.0000E+00  0.1000E+01  0.1000E+01
    -11.664  0.0000E+00  0.0000E+00  0.1000E+01  0.1000E+01
    -11.516  0.0000E+00  0.0000E+00  0.1000E+01  0.1000E+01
    -11.368  0.0000E+00  0.0000E+00  0.1000E+01  0.1000E+01
    -11.220  0.0000E+00  0.0000E+00  0.1000E+01  0.1000E+01
    -11.072  0.0000E+00  0.0000E+00  0.1000E+01  0.1000E+01
    -10.924  0.0000E+00  0.0000E+00  0.1000E+01  0.1000E+01
    -10.776  0.0000E+00  0.0000E+00  0.1000E+01  0.1000E+01
    -10.628  0.0000E+00  0.0000E+00  0.1000E+01  0.1000E+01
    -10.480  0.0000E+00  0.0000E+00  0.1000E+01  0.1000E+01
    -10.332  0.0000E+00  0.0000E+00  0.1000E+01  0.1000E+01
    -10.184  0.0000E+00  0.0000E+00  0.1000E+01  0.1000E+01
    -10.035  0.0000E+00  0.0000E+00  0.1000E+01  0.1000E+01
     -9.887  0.0000E+00  0.0000E+00  0.1000E+01  0.1000E+01
     -9.739  0.0000E+00  0.0000E+00  0.1000E+01  0.1000E+01
     -9.591  0.0000E+00  0.0000E+00  0.1000E+01  0.1000E+01
     -9.443  0.0000E+00  0.0000E+00  0.1000E+01  0.1000E+01
     -9.295  0.0000E+00  0.0000E+00  0.1000E+01  0.1000E+01
     -9.147  0.1075E+01  0.1075E+01  0.1038E+01  0.1038E+01
     -8.999  0.2750E+01  0.2750E+01  0.1322E+01  0.1322E+01
     -8.851  0.2249E+01  0.2249E+01  0.1647E+01  0.1647E+01
     -8.703  0.1298E+01  0.1298E+01  0.1890E+01  0.1890E+01
     -8.555  0.3320E+00  0.3320E+00  0.1984E+01  0.1984E+01
     -8.406  0.1969E-01  0.1969E-01  0.2000E+01  0.2000E+01
     -8.258  0.0000E+00  0.0000E+00  0.2000E+01  0.2000E+01
     -8.110  0.0000E+00  0.0000E+00  0.2000E+01  0.2000E+01
     -7.962  0.0000E+00  0.0000E+00  0.2000E+01  0.2000E+01
     -7.814  0.0000E+00  0.0000E+00  0.2000E+01  0.2000E+01
     -7.666  0.0000E+00  0.0000E+00  0.2000E+01  0.2000E+01
     -7.518  0.0000E+00  0.0000E+00  0.2000E+01  0.2000E+01
     -7.370  0.0000E+00  0.0000E+00  0.2000E+01  0.2000E+01
     -7.222  0.0000E+00  0.0000E+00  0.2000E+01  0.2000E+01
     -7.074  0.0000E+00  0.0000E+00  0.2000E+01  0.2000E+01
     -6.926  0.0000E+00  0.0000E+00  0.2000E+01  0.2000E+01
     -6.777  0.0000E+00  0.0000E+00  0.2000E+01  0.2000E+01
     -6.629  0.0000E+00  0.0000E+00  0.2000E+01  0.2000E+01
     -6.481  0.0000E+00  0.0000E+00  0.2000E+01  0.2000E+01
     -6.333  0.0000E+00  0.0000E+00  0.2000E+01  0.2000E+01
     -6.185  0.0000E+00  0.0000E+00  0.2000E+01  0.2000E+01
     -6.037  0.0000E+00  0.0000E+00  0.2000E+01  0.2000E+01
     -5.889  0.0000E+00  0.0000E+00  0.2000E+01  0.2000E+01
     -5.741  0.0000E+00  0.0000E+00  0.2000E+01  0.2000E+01
     -5.593  0.0000E+00  0.0000E+00  0.2000E+01  0.2000E+01
     -5.445  0.0000E+00  0.0000E+00  0.2000E+01  0.2000E+01
     -5.297  0.0000E+00  0.0000E+00  0.2000E+01  0.2000E+01
     -5.149  0.0000E+00  0.0000E+00  0.2000E+01  0.2000E+01
     -5.000  0.0000E+00  0.0000E+00  0.2000E+01  0.2000E+01
     -4.852  0.0000E+00  0.0000E+00  0.2000E+01  0.2000E+01
     -4.704  0.0000E+00  0.0000E+00  0.2000E+01  0.2000E+01
     -4.556  0.0000E+00  0.0000E+00  0.2000E+01  0.2000E+01
     -4.408  0.0000E+00  0.0000E+00  0.2000E+01  0.2000E+01
     -4.260  0.0000E+00  0.0000E+00  0.2000E+01  0.2000E+01
     -4.112  0.0000E+00  0.0000E+00  0.2000E+01  0.2000E+01
     -3.964  0.0000E+00  0.0000E+00  0.2000E+01  0.2000E+01
     -3.816  0.0000E+00  0.0000E+00  0.2000E+01  0.2000E+01
     -3.668  0.1286E+02  0.1286E+02  0.2291E+01  0.2291E+01
     -3.520  0.1694E+02  0.1694E+02  0.4069E+01  0.4069E+01
     -3.371  0.4025E+01  0.4025E+01  0.4998E+01  0.4998E+01
     -3.223  0.0000E+00  0.0000E+00  0.5000E+01  0.5000E+01
     -3.075  0.0000E+00  0.0000E+00  0.5000E+01  0.5000E+01
     -2.927  0.0000E+00  0.0000E+00  0.5000E+01  0.5000E+01
     -2.779  0.0000E+00  0.0000E+00  0.5000E+01  0.5000E+01
     -2.631  0.0000E+00  0.0000E+00  0.5000E+01  0.5000E+01
     -2.483  0.0000E+00  0.0000E+00  0.5000E+01  0.5000E+01
     -2.335  0.0000E+00  0.0000E+00  0.5000E+01  0.5000E+01
     -2.187  0.0000E+00  0.0000E+00  0.5000E+01  0.5000E+01
     -2.039  0.0000E+00  0.0000E+00  0.5000E+01  0.5000E+01
     -1.891  0.0000E+00  0.0000E+00  0.5000E+01  0.5000E+01
     -1.742  0.0000E+00  0.0000E+00  0.5000E+01  0.5000E+01
     -1.594  0.0000E+00  0.0000E+00  0.5000E+01  0.5000E+01
     -1.446  0.0000E+00  0.0000E+00  0.5000E+01  0.5000E+01
     -1.298  0.0000E+00  0.0000E+00  0.5000E+01  0.5000E+01
     -1.150  0.0000E+00  0.0000E+00  0.5000E+01  0.5000E+01
     -1.002  0.0000E+00  0.0000E+00  0.5000E+01  0.5000E+01
     -0.854  0.0000E+00  0.0000E+00  0.5000E+01  0.5000E+01
     -0.706  0.0000E+00  0.0000E+00  0.5000E+01  0.5000E+01
     -0.558  0.0000E+00  0.0000E+00  0.5000E+01  0.5000E+01
     -0.410  0.0000E+00  0.0000E+00  0.5000E+01  0.5000E+01
     -0.262  0.5236E+00  0.5236E+00  0.5026E+01  0.5026E+01
     -0.114  0.1210E+01  0.1210E+01  0.5137E+01  0.5137E+01
      0.035  0.2804E+01  0.2804E+01  0.5461E+01  0.5461E+01
      0.183  0.1916E+01  0.1916E+01  0.5773E+01  0.5773E+01
      0.331  0.1530E+01  0.1530E+01  0.6004E+01  0.6004E+01
      0.479  0.1174E+01  0.1174E+01  0.6207E+01  0.6207E+01
      0.627  0.1253E+01  0.1253E+01  0.6383E+01  0.6383E+01
      0.775  0.8610E+00  0.8610E+00  0.6533E+01  0.6533E+01
      0.923  0.8441E+00  0.8441E+00  0.6658E+01  0.6658E+01
      1.071  0.8500E+00  0.8500E+00  0.6783E+01  0.6783E+01
      1.219  0.9186E+00  0.9186E+00  0.6920E+01  0.6920E+01
      1.367  0.1460E+01  0.1460E+01  0.7093E+01  0.7093E+01
      1.515  0.1260E+01  0.1260E+01  0.7272E+01  0.7272E+01
      1.664  0.1464E+01  0.1464E+01  0.7476E+01  0.7476E+01
      1.812  0.1680E+01  0.1680E+01  0.7704E+01  0.7704E+01
      1.960  0.9079E+00  0.9079E+00  0.7903E+01  0.7903E+01
      2.108  0.2842E+00  0.2842E+00  0.7970E+01  0.7970E+01
      2.256  0.8915E-01  0.8915E-01  0.7995E+01  0.7995E+01
      2.404  0.0000E+00  0.0000E+00  0.8000E+01  0.8000E+01
      2.552  0.0000E+00  0.0000E+00  0.8000E+01  0.8000E+01
      2.700  0.0000E+00  0.0000E+00  0.8000E+01  0.8000E+01
      2.848  0.0000E+00  0.0000E+00  0.8000E+01  0.8000E+01
      2.996  0.0000E+00  0.0000E+00  0.8000E+01  0.8000E+01
      3.144  0.0000E+00  0.0000E+00  0.8000E+01  0.8000E+01
      3.293  0.0000E+00  0.0000E+00  0.8000E+01  0.8000E+01
      3.441  0.0000E+00  0.0000E+00  0.8000E+01  0.8000E+01
      3.589  0.0000E+00  0.0000E+00  0.8000E+01  0.8000E+01
      3.737  0.0000E+00  0.0000E+00  0.8000E+01  0.8000E+01
      3.885  0.0000E+00  0.0000E+00  0.8000E+01  0.8000E+01
      4.033  0.0000E+00  0.0000E+00  0.8000E+01  0.8000E+01
      4.181  0.0000E+00  0.0000E+00  0.8000E+01  0.8000E+01
      4.329  0.0000E+00  0.0000E+00  0.8000E+01  0.8000E+01
      4.477  0.0000E+00  0.0000E+00  0.8000E+01  0.8000E+01
      4.625  0.0000E+00  0.0000E+00  0.8000E+01  0.8000E+01
      4.773  0.0000E+00  0.0000E+00  0.8000E+01  0.8000E+01
      4.921  0.0000E+00  0.0000E+00  0.8000E+01  0.8000E+01
      5.070  0.0000E+00  0.0000E+00  0.8000E+01  0.8000E+01
      5.218  0.0000E+00  0.0000E+00  0.8000E+01  0.8000E+01
      5.366  0.0000E+00  0.0000E+00  0.8000E+01  0.8000E+01
      5.514  0.0000E+00  0.0000E+00  0.8000E+01  0.8000E+01
      5.662  0.0000E+00  0.0000E+00  0.8000E+01  0.8000E+01
      5.810  0.0000E+00  0.0000E+00  0.8000E+01  0.8000E+01
      5.958  0.0000E+00  0.0000E+00  0.8000E+01  0.8000E+01
      6.106  0.0000E+00  0.0000E+00  0.8000E+01  0.8000E+01
      6.254  0.3823E-02  0.3823E-02  0.8000E+01  0.8000E+01
      6.402  0.2232E-01  0.2232E-01  0.8002E+01  0.8002E+01
      6.550  0.1495E+00  0.1495E+00  0.8009E+01  0.8009E+01
      6.699  0.4147E+00  0.4147E+00  0.8049E+01  0.8049E+01
      6.847  0.6495E+00  0.6495E+00  0.8128E+01  0.8128E+01
      6.995  0.1068E+01  0.1068E+01  0.8254E+01  0.8254E+01
      7.143  0.1347E+01  0.1347E+01  0.8434E+01  0.8434E+01
      7.291  0.1799E+01  0.1799E+01  0.8699E+01  0.8699E+01
      7.439  0.1237E+01  0.1237E+01  0.8896E+01  0.8896E+01
      7.587  0.1063E+01  0.1063E+01  0.9065E+01  0.9065E+01
      7.735  0.6909E+00  0.6909E+00  0.9197E+01  0.9197E+01
      7.883  0.8214E+00  0.8214E+00  0.9308E+01  0.9308E+01
      8.031  0.9326E+00  0.9326E+00  0.9438E+01  0.9438E+01
      8.179  0.9973E+00  0.9973E+00  0.9583E+01  0.9583E+01
      8.328  0.9658E+00  0.9658E+00  0.9729E+01  0.9729E+01
      8.476  0.8248E+00  0.8248E+00  0.9861E+01  0.9861E+01
      8.624  0.1751E+01  0.1751E+01  0.1006E+02  0.1006E+02
      8.772  0.2093E+01  0.2093E+01  0.1030E+02  0.1030E+02
      8.920  0.2615E+01  0.2615E+01  0.1065E+02  0.1065E+02
      9.068  0.1593E+01  0.1593E+01  0.1088E+02  0.1088E+02
      9.216  0.1084E+01  0.1084E+01  0.1107E+02  0.1107E+02
      9.364  0.9749E+00  0.9749E+00  0.1122E+02  0.1122E+02
      9.512  0.1107E+01  0.1107E+01  0.1137E+02  0.1137E+02
      9.660  0.1314E+01  0.1314E+01  0.1155E+02  0.1155E+02
      9.808  0.1052E+01  0.1052E+01  0.1173E+02  0.1173E+02
      9.956  0.4843E+00  0.4843E+00  0.1184E+02  0.1184E+02
     10.105  0.5800E+00  0.5800E+00  0.1195E+02  0.1195E+02
     10.253  0.5766E+00  0.5766E+00  0.1200E+02  0.1200E+02
     10.401  0.7713E+00  0.7713E+00  0.1210E+02  0.1210E+02
     10.549  0.1079E+01  0.1079E+01  0.1223E+02  0.1223E+02
     10.697  0.1223E+01  0.1223E+01  0.1245E+02  0.1245E+02
     10.845  0.9625E+00  0.9625E+00  0.1260E+02  0.1260E+02
     10.993  0.1090E+01  0.1090E+01  0.1275E+02  0.1275E+02
     11.141  0.1123E+01  0.1123E+01  0.1291E+02  0.1291E+02
     11.289  0.8220E+00  0.8220E+00  0.1305E+02  0.1305E+02
     11.437  0.8631E+00  0.8631E+00  0.1317E+02  0.1317E+02
     11.585  0.7877E+00  0.7877E+00  0.1329E+02  0.1329E+02
     11.734  0.7248E+00  0.7248E+00  0.1341E+02  0.1341E+02
     11.882  0.7929E+00  0.7929E+00  0.1353E+02  0.1353E+02
     12.030  0.7592E+00  0.7592E+00  0.1364E+02  0.1364E+02
     12.178  0.9259E+00  0.9259E+00  0.1376E+02  0.1376E+02
     12.326  0.1016E+01  0.1016E+01  0.1391E+02  0.1391E+02
     12.474  0.1067E+01  0.1067E+01  0.1407E+02  0.1407E+02
     12.622  0.1499E+01  0.1499E+01  0.1424E+02  0.1424E+02
     12.770  0.1376E+01  0.1376E+01  0.1446E+02  0.1446E+02
     12.918  0.1095E+01  0.1095E+01  0.1463E+02  0.1463E+02
     13.066  0.1126E+01  0.1126E+01  0.1479E+02  0.1479E+02
     13.214  0.1192E+01  0.1192E+01  0.1496E+02  0.1496E+02
     13.363  0.1135E+01  0.1135E+01  0.1514E+02  0.1514E+02
     13.511  0.9796E+00  0.9796E+00  0.1530E+02  0.1530E+02
     13.659  0.1102E+01  0.1102E+01  0.1545E+02  0.1545E+02
     13.807  0.1297E+01  0.1297E+01  0.1563E+02  0.1563E+02
     13.955  0.9459E+00  0.9459E+00  0.1580E+02  0.1580E+02
     14.103  0.9329E+00  0.9329E+00  0.1593E+02  0.1593E+02
     14.251  0.1024E+01  0.1024E+01  0.1608E+02  0.1608E+02
     14.399  0.1379E+01  0.1379E+01  0.1625E+02  0.1625E+02
     14.547  0.1335E+01  0.1335E+01  0.1646E+02  0.1646E+02
     14.695  0.9062E+00  0.9062E+00  0.1662E+02  0.1662E+02
     14.843  0.5369E+00  0.5369E+00  0.1673E+02  0.1673E+02
     14.991  0.6841E+00  0.6841E+00  0.1681E+02  0.1681E+02
     15.140  0.1266E+01  0.1266E+01  0.1694E+02  0.1694E+02
     15.288  0.1558E+01  0.1558E+01  0.1717E+02  0.1717E+02
     15.436  0.1365E+01  0.1365E+01  0.1739E+02  0.1739E+02
     15.584  0.1184E+01  0.1184E+01  0.1758E+02  0.1758E+02
     15.732  0.5809E+00  0.5809E+00  0.1769E+02  0.1769E+02
     15.880  0.4090E+00  0.4090E+00  0.1776E+02  0.1776E+02
     16.028  0.3658E+00  0.3658E+00  0.1782E+02  0.1782E+02
     16.176  0.5364E+00  0.5364E+00  0.1789E+02  0.1789E+02
     16.324  0.6891E+00  0.6891E+00  0.1798E+02  0.1798E+02
     16.472  0.7702E+00  0.7702E+00  0.1809E+02  0.1809E+02
     16.620  0.1281E+01  0.1281E+01  0.1825E+02  0.1825E+02
     16.769  0.1451E+01  0.1451E+01  0.1843E+02  0.1843E+02
     16.917  0.1666E+01  0.1666E+01  0.1866E+02  0.1866E+02
     17.065  0.1731E+01  0.1731E+01  0.1893E+02  0.1893E+02
     17.213  0.1630E+01  0.1630E+01  0.1917E+02  0.1917E+02
     17.361  0.1620E+01  0.1620E+01  0.1939E+02  0.1939E+02
     17.509  0.1099E+01  0.1099E+01  0.1960E+02  0.1960E+02
     17.657  0.7584E+00  0.7584E+00  0.1973E+02  0.1973E+02
     17.805  0.5105E+00  0.5105E+00  0.1982E+02  0.1982E+02
     17.953  0.4108E+00  0.4108E+00  0.1989E+02  0.1989E+02
     18.101  0.2895E+00  0.2895E+00  0.1994E+02  0.1994E+02
     18.249  0.1807E+00  0.1807E+00  0.1998E+02  0.1998E+02
     18.398  0.4775E-01  0.4776E-01  0.2000E+02  0.2000E+02
     18.546  0.2959E-02  0.2961E-02  0.2000E+02  0.2000E+02
     18.694  0.0000E+00  0.0000E+00  0.2000E+02  0.2000E+02
     18.842  0.0000E+00  0.0000E+00  0.2000E+02  0.2000E+02
     18.990  0.0000E+00  0.0000E+00  0.2000E+02  0.2000E+02
     19.138  0.0000E+00  0.0000E+00  0.2000E+02  0.2000E+02
     19.286  0.0000E+00  0.0000E+00  0.2000E+02  0.2000E+02
     19.434  0.0000E+00  0.0000E+00  0.2000E+02  0.2000E+02
     19.582  0.0000E+00  0.0000E+00  0.2000E+02  0.2000E+02
     19.730  0.0000E+00  0.0000E+00  0.2000E+02  0.2000E+02
     19.878  0.0000E+00  0.0000E+00  0.2000E+02  0.2000E+02
     20.026  0.0000E+00  0.0000E+00  0.2000E+02  0.2000E+02
     20.175  0.0000E+00  0.0000E+00  0.2000E+02  0.2000E+02
     20.323  0.0000E+00  0.0000E+00  0.2000E+02  0.2000E+02
     20.471  0.0000E+00  0.0000E+00  0.2000E+02  0.2000E+02
     20.619  0.0000E+00  0.0000E+00  0.2000E+02  0.2000E+02
     20.61884697    -23.80764087  301      2.34509396      1.00000000
    -23.808  0.0000E+00  0.0000E+00  0.0000E+00  0.0000E+00  0.0000E+00  0.0000E+00  0.0000E+00  0.0000E+00  0.0000E+00  0.0000E+00  0.0000E+00  0.0000E+00  0.0000E+00  0.0000E+00  0.0000E+00  0.0000E+00  0.0000E+00  0.0000E+00
    -23.660  0.0000E+00  0.0000E+00  0.0000E+00  0.0000E+00  0.0000E+00  0.0000E+00  0.0000E+00  0.0000E+00  0.0000E+00  0.0000E+00  0.0000E+00  0.0000E+00  0.0000E+00  0.0000E+00  0.0000E+00  0.0000E+00  0.0000E+00  0.0000E+00
    -23.511  0.0000E+00  0.0000E+00  0.0000E+00  0.0000E+00  0.0000E+00  0.0000E+00  0.0000E+00  0.0000E+00  0.0000E+00  0.0000E+00  0.0000E+00  0.0000E+00  0.0000E+00  0.0000E+00  0.0000E+00  0.0000E+00  0.0000E+00  0.0000E+00
    -23.363  0.0000E+00  0.0000E+00  0.0000E+00  0.0000E+00  0.0000E+00  0.0000E+00  0.0000E+00  0.0000E+00  0.0000E+00  0.0000E+00  0.0000E+00  0.0000E+00  0.0000E+00  0.0000E+00  0.0000E+00  0.0000E+00  0.0000E+00  0.0000E+00
    -23.215  0.0000E+00  0.0000E+00  0.0000E+00  0.0000E+00  0.0000E+00  0.0000E+00  0.0000E+00  0.0000E+00  0.0000E+00  0.0000E+00  0.0000E+00  0.0000E+00  0.0000E+00  0.0000E+00  0.0000E+00  0.0000E+00  0.0000E+00  0.0000E+00
    -23.067  0.0000E+00  0.0000E+00  0.0000E+00  0.0000E+00  0.0000E+00  0.0000E+00  0.0000E+00  0.0000E+00  0.0000E+00  0.0000E+00  0.0000E+00  0.0000E+00  0.0000E+00  0.0000E+00  0.0000E+00  0.0000E+00  0.0000E+00  0.0000E+00
    -22.919  0.0000E+00  0.0000E+00  0.0000E+00  0.0000E+00  0.0000E+00  0.0000E+00  0.0000E+00  0.0000E+00  0.0000E+00  0.0000E+00  0.0000E+00  0.0000E+00  0.0000E+00  0.0000E+00  0.0000E+00  0.0000E+00  0.0000E+00  0.0000E+00
    -22.771  0.0000E+00  0.0000E+00  0.0000E+00  0.0000E+00  0.0000E+00  0.0000E+00  0.0000E+00  0.0000E+00  0.0000E+00  0.0000E+00  0.0000E+00  0.0000E+00  0.0000E+00  0.0000E+00  0.0000E+00  0.0000E+00  0.0000E+00  0.0000E+00
    -22.623  0.0000E+00  0.0000E+00  0.0000E+00  0.0000E+00  0.0000E+00  0.0000E+00  0.0000E+00  0.0000E+00  0.0000E+00  0.0000E+00  0.0000E+00  0.0000E+00  0.0000E+00  0.0000E+00  0.0000E+00  0.0000E+00  0.0000E+00  0.0000E+00
    -22.475  0.0000E+00  0.0000E+00  0.0000E+00  0.0000E+00  0.0000E+00  0.0000E+00  0.0000E+00  0.0000E+00  0.0000E+00  0.0000E+00  0.0000E+00  0.0000E+00  0.0000E+00  0.0000E+00  0.0000E+00  0.0000E+00  0.0000E+00  0.0000E+00
    -22.327  0.0000E+00  0.0000E+00  0.0000E+00  0.0000E+00  0.0000E+00  0.0000E+00  0.0000E+00  0.0000E+00  0.0000E+00  0.0000E+00  0.0000E+00  0.0000E+00  0.0000E+00  0.0000E+00  0.0000E+00  0.0000E+00  0.0000E+00  0.0000E+00
    -22.179  0.0000E+00  0.0000E+00  0.0000E+00  0.0000E+00  0.0000E+00  0.0000E+00  0.0000E+00  0.0000E+00  0.0000E+00  0.0000E+00  0.0000E+00  0.0000E+00  0.0000E+00  0.0000E+00  0.0000E+00  0.0000E+00  0.0000E+00  0.0000E+00
    -22.031  0.0000E+00  0.0000E+00  0.0000E+00  0.0000E+00  0.0000E+00  0.0000E+00  0.0000E+00  0.0000E+00  0.0000E+00  0.0000E+00  0.0000E+00  0.0000E+00  0.0000E+00  0.0000E+00  0.0000E+00  0.0000E+00  0.0000E+00  0.0000E+00
    -21.882  0.0000E+00  0.0000E+00  0.0000E+00  0.0000E+00  0.0000E+00  0.0000E+00  0.0000E+00  0.0000E+00  0.0000E+00  0.0000E+00  0.0000E+00  0.0000E+00  0.0000E+00  0.0000E+00  0.0000E+00  0.0000E+00  0.0000E+00  0.0000E+00
    -21.734  0.2088E-01  0.2088E-01  0.7403E-07  0.7403E-07  0.2003E-01  0.2003E-01  0.1581E-06  0.1581E-06  0.0000E+00  0.0000E+00  0.0000E+00  0.0000E+00  0.0000E+00  0.0000E+00  0.0000E+00  0.0000E+00  0.0000E+00  0.0000E+00
    -21.586  0.0000E+00  0.0000E+00  0.0000E+00  0.0000E+00  0.0000E+00  0.0000E+00  0.0000E+00  0.0000E+00  0.0000E+00  0.0000E+00  0.0000E+00  0.0000E+00  0.0000E+00  0.0000E+00  0.0000E+00  0.0000E+00  0.0000E+00  0.0000E+00
    -21.438  0.0000E+00  0.0000E+00  0.0000E+00  0.0000E+00  0.0000E+00  0.0000E+00  0.0000E+00  0.0000E+00  0.0000E+00  0.0000E+00  0.0000E+00  0.0000E+00  0.0000E+00  0.0000E+00  0.0000E+00  0.0000E+00  0.0000E+00  0.0000E+00
    -21.290  0.0000E+00  0.0000E+00  0.0000E+00  0.0000E+00  0.0000E+00  0.0000E+00  0.0000E+00  0.0000E+00  0.0000E+00  0.0000E+00  0.0000E+00  0.0000E+00  0.0000E+00  0.0000E+00  0.0000E+00  0.0000E+00  0.0000E+00  0.0000E+00
    -21.142  0.0000E+00  0.0000E+00  0.0000E+00  0.0000E+00  0.0000E+00  0.0000E+00  0.0000E+00  0.0000E+00  0.0000E+00  0.0000E+00  0.0000E+00  0.0000E+00  0.0000E+00  0.0000E+00  0.0000E+00  0.0000E+00  0.0000E+00  0.0000E+00
    -20.994  0.0000E+00  0.0000E+00  0.0000E+00  0.0000E+00  0.0000E+00  0.0000E+00  0.0000E+00  0.0000E+00  0.0000E+00  0.0000E+00  0.0000E+00  0.0000E+00  0.0000E+00  0.0000E+00  0.0000E+00  0.0000E+00  0.0000E+00  0.0000E+00
    -20.846  0.0000E+00  0.0000E+00  0.0000E+00  0.0000E+00  0.0000E+00  0.0000E+00  0.0000E+00  0.0000E+00  0.0000E+00  0.0000E+00  0.0000E+00  0.0000E+00  0.0000E+00  0.0000E+00  0.0000E+00  0.0000E+00  0.0000E+00  0.0000E+00
    -20.698  0.0000E+00  0.0000E+00  0.0000E+00  0.0000E+00  0.0000E+00  0.0000E+00  0.0000E+00  0.0000E+00  0.0000E+00  0.0000E+00  0.0000E+00  0.0000E+00  0.0000E+00  0.0000E+00  0.0000E+00  0.0000E+00  0.0000E+00  0.0000E+00
    -20.550  0.0000E+00  0.0000E+00  0.0000E+00  0.0000E+00  0.0000E+00  0.0000E+00  0.0000E+00  0.0000E+00  0.0000E+00  0.0000E+00  0.0000E+00  0.0000E+00  0.0000E+00  0.0000E+00  0.0000E+00  0.0000E+00  0.0000E+00  0.0000E+00
    -20.402  0.0000E+00  0.0000E+00  0.0000E+00  0.0000E+00  0.0000E+00  0.0000E+00  0.0000E+00  0.0000E+00  0.0000E+00  0.0000E+00  0.0000E+00  0.0000E+00  0.0000E+00  0.0000E+00  0.0000E+00  0.0000E+00  0.0000E+00  0.0000E+00
    -20.254  0.0000E+00  0.0000E+00  0.0000E+00  0.0000E+00  0.0000E+00  0.0000E+00  0.0000E+00  0.0000E+00  0.0000E+00  0.0000E+00  0.0000E+00  0.0000E+00  0.0000E+00  0.0000E+00  0.0000E+00  0.0000E+00  0.0000E+00  0.0000E+00
    -20.105  0.0000E+00  0.0000E+00  0.0000E+00  0.0000E+00  0.0000E+00  0.0000E+00  0.0000E+00  0.0000E+00  0.0000E+00  0.0000E+00  0.0000E+00  0.0000E+00  0.0000E+00  0.0000E+00  0.0000E+00  0.0000E+00  0.0000E+00  0.0000E+00
    -19.957  0.0000E+00  0.0000E+00  0.0000E+00  0.0000E+00  0.0000E+00  0.0000E+00  0.0000E+00  0.0000E+00  0.0000E+00  0.0000E+00  0.0000E+00  0.0000E+00  0.0000E+00  0.0000E+00  0.0000E+00  0.0000E+00  0.0000E+00  0.0000E+00
    -19.809  0.0000E+00  0.0000E+00  0.0000E+00  0.0000E+00  0.0000E+00  0.0000E+00  0.0000E+00  0.0000E+00  0.0000E+00  0.0000E+00  0.0000E+00  0.0000E+00  0.0000E+00  0.0000E+00  0.0000E+00  0.0000E+00  0.0000E+00  0.0000E+00
    -19.661  0.0000E+00  0.0000E+00  0.0000E+00  0.0000E+00  0.0000E+00  0.0000E+00  0.0000E+00  0.0000E+00  0.0000E+00  0.0000E+00  0.0000E+00  0.0000E+00  0.0000E+00  0.0000E+00  0.0000E+00  0.0000E+00  0.0000E+00  0.0000E+00
    -19.513  0.0000E+00  0.0000E+00  0.0000E+00  0.0000E+00  0.0000E+00  0.0000E+00  0.0000E+00  0.0000E+00  0.0000E+00  0.0000E+00  0.0000E+00  0.0000E+00  0.0000E+00  0.0000E+00  0.0000E+00  0.0000E+00  0.0000E+00  0.0000E+00
    -19.365  0.0000E+00  0.0000E+00  0.0000E+00  0.0000E+00  0.0000E+00  0.0000E+00  0.0000E+00  0.0000E+00  0.0000E+00  0.0000E+00  0.0000E+00  0.0000E+00  0.0000E+00  0.0000E+00  0.0000E+00  0.0000E+00  0.0000E+00  0.0000E+00
    -19.217  0.0000E+00  0.0000E+00  0.0000E+00  0.0000E+00  0.0000E+00  0.0000E+00  0.0000E+00  0.0000E+00  0.0000E+00  0.0000E+00  0.0000E+00  0.0000E+00  0.0000E+00  0.0000E+00  0.0000E+00  0.0000E+00  0.0000E+00  0.0000E+00
    -19.069  0.0000E+00  0.0000E+00  0.0000E+00  0.0000E+00  0.0000E+00  0.0000E+00  0.0000E+00  0.0000E+00  0.0000E+00  0.0000E+00  0.0000E+00  0.0000E+00  0.0000E+00  0.0000E+00  0.0000E+00  0.0000E+00  0.0000E+00  0.0000E+00
    -18.921  0.0000E+00  0.0000E+00  0.0000E+00  0.0000E+00  0.0000E+00  0.0000E+00  0.0000E+00  0.0000E+00  0.0000E+00  0.0000E+00  0.0000E+00  0.0000E+00  0.0000E+00  0.0000E+00  0.0000E+00  0.0000E+00  0.0000E+00  0.0000E+00
    -18.773  0.0000E+00  0.0000E+00  0.0000E+00  0.0000E+00  0.0000E+00  0.0000E+00  0.0000E+00  0.0000E+00  0.0000E+00  0.0000E+00  0.0000E+00  0.0000E+00  0.0000E+00  0.0000E+00  0.0000E+00  0.0000E+00  0.0000E+00  0.0000E+00
    -18.625  0.0000E+00  0.0000E+00  0.0000E+00  0.0000E+00  0.0000E+00  0.0000E+00  0.0000E+00  0.0000E+00  0.0000E+00  0.0000E+00  0.0000E+00  0.0000E+00  0.0000E+00  0.0000E+00  0.0000E+00  0.0000E+00  0.0000E+00  0.0000E+00
    -18.476  0.0000E+00  0.0000E+00  0.0000E+00  0.0000E+00  0.0000E+00  0.0000E+00  0.0000E+00  0.0000E+00  0.0000E+00  0.0000E+00  0.0000E+00  0.0000E+00  0.0000E+00  0.0000E+00  0.0000E+00  0.0000E+00  0.0000E+00  0.0000E+00
    -18.328  0.0000E+00  0.0000E+00  0.0000E+00  0.0000E+00  0.0000E+00  0.0000E+00  0.0000E+00  0.0000E+00  0.0000E+00  0.0000E+00  0.0000E+00  0.0000E+00  0.0000E+00  0.0000E+00  0.0000E+00  0.0000E+00  0.0000E+00  0.0000E+00
    -18.180  0.0000E+00  0.0000E+00  0.0000E+00  0.0000E+00  0.0000E+00  0.0000E+00  0.0000E+00  0.0000E+00  0.0000E+00  0.0000E+00  0.0000E+00  0.0000E+00  0.0000E+00  0.0000E+00  0.0000E+00  0.0000E+00  0.0000E+00  0.0000E+00
    -18.032  0.0000E+00  0.0000E+00  0.0000E+00  0.0000E+00  0.0000E+00  0.0000E+00  0.0000E+00  0.0000E+00  0.0000E+00  0.0000E+00  0.0000E+00  0.0000E+00  0.0000E+00  0.0000E+00  0.0000E+00  0.0000E+00  0.0000E+00  0.0000E+00
    -17.884  0.0000E+00  0.0000E+00  0.0000E+00  0.0000E+00  0.0000E+00  0.0000E+00  0.0000E+00  0.0000E+00  0.0000E+00  0.0000E+00  0.0000E+00  0.0000E+00  0.0000E+00  0.0000E+00  0.0000E+00  0.0000E+00  0.0000E+00  0.0000E+00
    -17.736  0.0000E+00  0.0000E+00  0.0000E+00  0.0000E+00  0.0000E+00  0.0000E+00  0.0000E+00  0.0000E+00  0.0000E+00  0.0000E+00  0.0000E+00  0.0000E+00  0.0000E+00  0.0000E+00  0.0000E+00  0.0000E+00  0.0000E+00  0.0000E+00
    -17.588  0.0000E+00  0.0000E+00  0.0000E+00  0.0000E+00  0.0000E+00  0.0000E+00  0.0000E+00  0.0000E+00  0.0000E+00  0.0000E+00  0.0000E+00  0.0000E+00  0.0000E+00  0.0000E+00  0.0000E+00  0.0000E+00  0.0000E+00  0.0000E+00
    -17.440  0.0000E+00  0.0000E+00  0.0000E+00  0.0000E+00  0.0000E+00  0.0000E+00  0.0000E+00  0.0000E+00  0.0000E+00  0.0000E+00  0.0000E+00  0.0000E+00  0.0000E+00  0.0000E+00  0.0000E+00  0.0000E+00  0.0000E+00  0.0000E+00
    -17.292  0.0000E+00  0.0000E+00  0.0000E+00  0.0000E+00  0.0000E+00  0.0000E+00  0.0000E+00  0.0000E+00  0.0000E+00  0.0000E+00  0.0000E+00  0.0000E+00  0.0000E+00  0.0000E+00  0.0000E+00  0.0000E+00  0.0000E+00  0.0000E+00
    -17.144  0.0000E+00  0.0000E+00  0.0000E+00  0.0000E+00  0.0000E+00  0.0000E+00  0.0000E+00  0.0000E+00  0.0000E+00  0.0000E+00  0.0000E+00  0.0000E+00  0.0000E+00  0.0000E+00  0.0000E+00  0.0000E+00  0.0000E+00  0.0000E+00
    -16.996  0.0000E+00  0.0000E+00  0.0000E+00  0.0000E+00  0.0000E+00  0.0000E+00  0.0000E+00  0.0000E+00  0.0000E+00  0.0000E+00  0.0000E+00  0.0000E+00  0.0000E+00  0.0000E+00  0.0000E+00  0.0000E+00  0.0000E+00  0.0000E+00
    -16.847  0.0000E+00  0.0000E+00  0.0000E+00  0.0000E+00  0.0000E+00  0.0000E+00  0.0000E+00  0.0000E+00  0.0000E+00  0.0000E+00  0.0000E+00  0.0000E+00  0.0000E+00  0.0000E+00  0.0000E+00  0.0000E+00  0.0000E+00  0.0000E+00
    -16.699  0.0000E+00  0.0000E+00  0.0000E+00  0.0000E+00  0.0000E+00  0.0000E+00  0.0000E+00  0.0000E+00  0.0000E+00  0.0000E+00  0.0000E+00  0.0000E+00  0.0000E+00  0.0000E+00  0.0000E+00  0.0000E+00  0.0000E+00  0.0000E+00
    -16.551  0.0000E+00  0.0000E+00  0.0000E+00  0.0000E+00  0.0000E+00  0.0000E+00  0.0000E+00  0.0000E+00  0.0000E+00  0.0000E+00  0.0000E+00  0.0000E+00  0.0000E+00  0.0000E+00  0.0000E+00  0.0000E+00  0.0000E+00  0.0000E+00
    -16.403  0.0000E+00  0.0000E+00  0.0000E+00  0.0000E+00  0.0000E+00  0.0000E+00  0.0000E+00  0.0000E+00  0.0000E+00  0.0000E+00  0.0000E+00  0.0000E+00  0.0000E+00  0.0000E+00  0.0000E+00  0.0000E+00  0.0000E+00  0.0000E+00