 vasp.6.2.0 18Jan21 (build May 28 2021 15:16:31) complex                        
  
 executed on    Xeon40-Intel2020b date 2022.03.20  22:32:32
 running on   40 total cores
 distrk:  each k-point on   40 cores,    1 groups
 distr:  one band on NCORE=   4 cores,   10 groups


--------------------------------------------------------------------------------------------------------


 INCAR:
   ENCUT = 520.000000
   SIGMA = 0.050000
   EDIFF = 5.00e-05
   EDIFFG = -2.00e-02
   SYMPREC = 1.00e-08
   ALGO = normal
   GGA = PE
   PREC = accurate
   IBRION = 2
   ISIF = 3
   ISMEAR = -5
   ISPIN = 2
   ISTART = 1
   LORBIT = 11
   NGX = 50
   NGY = 50
   NGZ = 50
   NELMIN = 8
   NSW = 0
   NCORE = 4
   LAECHG = .TRUE.
   LCHARG = .TRUE.
   LVHAR = .TRUE.
   LVTOT = .TRUE.
   LWAVE = .TRUE.

 POTCAR:    PAW_PBE Li 17Jan2003                  
 POTCAR:    PAW_PBE Se 06Sep2000                  
 POTCAR:    PAW_PBE F 08Apr2002                   
 -----------------------------------------------------------------------------
|                                                                             |
|           W    W    AA    RRRRR   N    N  II  N    N   GGGG   !!!           |
|           W    W   A  A   R    R  NN   N  II  NN   N  G    G  !!!           |
|           W    W  A    A  R    R  N N  N  II  N N  N  G       !!!           |
|           W WW W  AAAAAA  RRRRR   N  N N  II  N  N N  G  GGG   !            |
|           WW  WW  A    A  R   R   N   NN  II  N   NN  G    G                |
|           W    W  A    A  R    R  N    N  II  N    N   GGGG   !!!           |
|                                                                             |
|     You use a magnetic or noncollinear calculation, but did not specify     |
|     the initial magnetic moment with the MAGMOM tag. Note that a            |
|     default of 1 will be used for all atoms. This ferromagnetic setup       |
|     may break the symmetry of the crystal, in particular it may rule        |
|     out finding an antiferromagnetic solution. Thence, we recommend         |
|     setting the initial magnetic moment manually or verifying carefully     |
|     that this magnetic setup is desired.                                    |
|                                                                             |
 -----------------------------------------------------------------------------

 POTCAR:    PAW_PBE Li 17Jan2003                  
   VRHFIN =Li: s1p0                                                                                 
   LEXCH  = PE                                                                                      
   EATOM  =     5.3001 eV,    0.3895 Ry                                                             
                                                                                                    
   TITEL  = PAW_PBE Li 17Jan2003                                                                    
   LULTRA =        F    use ultrasoft PP ?                                                          
   IUNSCR =        1    unscreen: 0-lin 1-nonlin 2-no                                               
   RPACOR =    1.500    partial core radius                                                         
   POMASS =    7.010; ZVAL   =    1.000    mass and valenz                                          
   RCORE  =    2.050    outmost cutoff radius                                                       
   RWIGS  =    2.600; RWIGS  =    1.376    wigner-seitz radius (au A)                               
   ENMAX  =  140.000; ENMIN  =  100.000 eV                                                          
   ICORE  =        2    local potential                                                             
   LCOR   =        T    correct aug charges                                                         
   LPAW   =        T    paw PP                                                                      
   EAUG   =  331.638                                                                                
   DEXC   =    0.000                                                                                
   RMAX   =    2.098    core radius for proj-oper                                                   
   RAUG   =    1.300    factor for augmentation sphere                                              
   RDEP   =    2.094    radius for radial grids                                                     
   RDEPT  =    1.810    core radius for aug-charge                                                  
                                                                                                    
   Atomic configuration                                                                             
    4 entries                                                                                       
     n  l   j            E        occ.                                                              
     1  0  0.50       -51.8549   2.0000                                                             
     2  0  0.50        -2.8742   1.0000                                                             
     2  1  0.50        -1.3606   0.0000                                                             
     3  2  1.50        -1.3606   0.0000                                                             
   Description                                                                                      
     l       E           TYP  RCUT    TYP  RCUT                                                     
     0     -2.8742052     23  2.050                                                                 
     0     27.2116520     23  2.050                                                                 
     1     -1.3605826     23  2.050                                                                 
     2     -1.3605826     23  2.050                                                                 
  local pseudopotential read in
  partial core-charges read in
  partial kinetic energy density read in
  atomic valenz-charges read in
  non local Contribution for L=           0  read in
    real space projection operators read in
  non local Contribution for L=           0  read in
    real space projection operators read in
  non local Contribution for L=           1  read in
    real space projection operators read in
    PAW grid and wavefunctions read in
 
   number of l-projection  operators is LMAX  =           3
   number of lm-projection operators is LMMAX =           5
 
 POTCAR:    PAW_PBE Se 06Sep2000                  
   VRHFIN =Se: s2p4                                                                                 
   LEXCH  = PE                                                                                      
   EATOM  =   257.1286 eV,   18.8984 Ry                                                             
                                                                                                    
   TITEL  = PAW_PBE Se 06Sep2000                                                                    
   LULTRA =        F    use ultrasoft PP ?                                                          
   IUNSCR =        1    unscreen: 0-lin 1-nonlin 2-no                                               
   RPACOR =    1.900    partial core radius                                                         
   POMASS =   78.960; ZVAL   =    6.000    mass and valenz                                          
   RCORE  =    2.100    outmost cutoff radius                                                       
   RWIGS  =    2.200; RWIGS  =    1.164    wigner-seitz radius (au A)                               
   ENMAX  =  211.555; ENMIN  =  158.666 eV                                                          
   ICORE  =        3    local potential                                                             
   LCOR   =        T    correct aug charges                                                         
   LPAW   =        T    paw PP                                                                      
   EAUG   =  446.842                                                                                
   DEXC   =    0.000                                                                                
   RMAX   =    2.147    core radius for proj-oper                                                   
   RAUG   =    1.300    factor for augmentation sphere                                              
   RDEP   =    2.177    radius for radial grids                                                     
   RDEPT  =    1.928    core radius for aug-charge                                                  
                                                                                                    
   Atomic configuration                                                                             
   10 entries                                                                                       
     n  l   j            E        occ.                                                              
     1  0  0.50    -12503.4787   2.0000                                                             
     2  0  0.50     -1606.9547   2.0000                                                             
     2  1  1.50     -1413.3140   6.0000                                                             
     3  0  0.50      -213.4885   2.0000                                                             
     3  1  1.50      -152.9538   6.0000                                                             
     3  2  2.50       -53.1221  10.0000                                                             
     4  0  0.50       -17.2865   2.0000                                                             
     4  1  0.50        -6.5110   4.0000                                                             
     4  2  2.50        -6.8029   0.0000                                                             
     4  3  2.50        -6.8029   0.0000                                                             
   Description                                                                                      
     l       E           TYP  RCUT    TYP  RCUT                                                     
     0    -17.2865377     23  2.100                                                                 
     0    -15.3094411     23  2.100                                                                 
     1     -6.5110275     23  2.100                                                                 
     1     -0.0695192     23  2.100                                                                 
     2     -6.8029130     23  2.100                                                                 
     3     -1.3605826      7  2.100                                                                 
  local pseudopotential read in
  partial core-charges read in
  partial kinetic energy density read in
  atomic valenz-charges read in
  non local Contribution for L=           0  read in
    real space projection operators read in
  non local Contribution for L=           0  read in
    real space projection operators read in
  non local Contribution for L=           1  read in
    real space projection operators read in
  non local Contribution for L=           1  read in
    real space projection operators read in
  non local Contribution for L=           2  read in
    real space projection operators read in
    PAW grid and wavefunctions read in
 
   number of l-projection  operators is LMAX  =           5
   number of lm-projection operators is LMMAX =          13
 
 POTCAR:    PAW_PBE F 08Apr2002                   
   VRHFIN =F: s2p5                                                                                  
   LEXCH  = PE                                                                                      
   EATOM  =   659.6475 eV,   48.4827 Ry                                                             
                                                                                                    
   TITEL  = PAW_PBE F 08Apr2002                                                                     
   LULTRA =        F    use ultrasoft PP ?                                                          
   IUNSCR =        1    unscreen: 0-lin 1-nonlin 2-no                                               
   RPACOR =    1.200    partial core radius                                                         
   POMASS =   18.998; ZVAL   =    7.000    mass and valenz                                          
   RCORE  =    1.520    outmost cutoff radius                                                       
   RWIGS  =    1.500; RWIGS  =    0.794    wigner-seitz radius (au A)                               
   ENMAX  =  400.000; ENMIN  =  300.000 eV                                                          
   ICORE  =        2    local potential                                                             
   LCOR   =        T    correct aug charges                                                         
   LPAW   =        T    paw PP                                                                      
   EAUG   =  613.614                                                                                
   RMAX   =    1.555    core radius for proj-oper                                                   
   RAUG   =    1.300    factor for augmentation sphere                                              
   RDEP   =    1.539    radius for radial grids                                                     
   RDEPT  =    1.299    core radius for aug-charge                                                  
                                                                                                    
   Atomic configuration                                                                             
    4 entries                                                                                       
     n  l   j            E        occ.                                                              
     1  0  0.50      -663.3661   2.0000                                                             
     2  0  0.50       -29.8995   2.0000                                                             
     2  1  0.50       -11.1114   5.0000                                                             
     3  2  1.50       -10.8847   0.0000                                                             
   Description                                                                                      
     l       E           TYP  RCUT    TYP  RCUT                                                     
     0    -29.8995018     23  1.200                                                                 
     0     -9.5240782     23  1.200                                                                 
     1    -11.1113914     23  1.520                                                                 
     1      1.3605826     23  1.520                                                                 
     2    -10.8846608      7  1.500                                                                 
  local pseudopotential read in
  partial core-charges read in
  partial kinetic energy density read in
  atomic valenz-charges read in
  non local Contribution for L=           0  read in
    real space projection operators read in
  non local Contribution for L=           0  read in
    real space projection operators read in
  non local Contribution for L=           1  read in
    real space projection operators read in
  non local Contribution for L=           1  read in
    real space projection operators read in
    PAW grid and wavefunctions read in
 
   number of l-projection  operators is LMAX  =           4
   number of lm-projection operators is LMMAX =           8
 
  PAW_PBE Li 17Jan2003                  :
 energy of atom  1       EATOM=   -5.3001
 kinetic energy error for atom=    0.0000 (will be added to EATOM!!)
  PAW_PBE Se 06Sep2000                  :
 energy of atom  2       EATOM= -257.1286
 kinetic energy error for atom=    0.0007 (will be added to EATOM!!)
  PAW_PBE F 08Apr2002                   :
 energy of atom  3       EATOM= -659.6475
 kinetic energy error for atom=    0.0323 (will be added to EATOM!!)
 
 
 POSCAR: Li Se  F
  positions in cartesian coordinates
  No initial velocities read in
 exchange correlation table for  LEXCH =        8
   RHO(1)=    0.500       N(1)  =     2000
   RHO(2)=  100.500       N(2)  =     4000
 


--------------------------------------------------------------------------------------------------------


 ion  position               nearest neighbor table
   1  0.495  0.501  0.997-   5 2.00   5 2.00   3 2.82   4 2.82   4 2.82   3 2.82   2 2.82   2 2.82
                             2 2.83   2 2.83   4 2.83   4 2.83   3 2.83   3 2.83
   2  0.495  0.002  0.498-   5 2.00   5 2.00   3 2.82   3 2.82   4 2.82   1 2.82   4 2.82   1 2.82
                             1 2.83   4 2.83   1 2.83   3 2.83   4 2.83   3 2.83
   3  0.995  0.504  0.495-   5 2.00   5 2.00   4 2.81   2 2.82   1 2.82   2 2.82   1 2.82   4 2.82
                             4 2.83   1 2.83   2 2.83   1 2.83   2 2.83   4 2.84
   4  0.996  0.002  0.998-   3 2.81   1 2.82   2 2.82   1 2.82   3 2.82   2 2.82   2 2.83   3 2.83
                             1 2.83   1 2.83   2 2.83   3 2.84
   5  0.496  0.502  0.498-   3 2.00   1 2.00   2 2.00   2 2.00   3 2.00   1 2.00
 
  LATTYP: Found a triclinic cell.
 ALAT       =     5.6512899050
 B/A-ratio  =     0.7067644562
 C/A-ratio  =     1.0000102617
 COS(alpha) =     0.0000097229
 COS(beta)  =     0.5002533475
 COS(gamma) =     0.7068523997
  
  Lattice vectors:
  
 A1 = (  -0.0006523111,   3.9943784088,  -3.9977516547)
 A2 = (  -0.0002206672,   3.9941308227,  -0.0002491738)
 A3 = (   3.9951421870,   0.0000263132,  -3.9970704221)


Analysis of symmetry for initial positions (statically):
=====================================================================
 Subroutine PRICEL returns:
 Original cell was already a primitive cell.
 

 Routine SETGRP: Setting up the symmetry group for a 
 triclinic supercell.


 Subroutine GETGRP returns: Found  1 space group operations
 (whereof  1 operations were pure point group operations)
 out of a pool of  2 trial point group operations.


The static configuration has the point symmetry C_1 .


Analysis of symmetry for dynamics (positions and initial velocities):
=====================================================================
 Subroutine PRICEL returns:
 Original cell was already a primitive cell.
 

 Routine SETGRP: Setting up the symmetry group for a 
 triclinic supercell.


 Subroutine GETGRP returns: Found  1 space group operations
 (whereof  1 operations were pure point group operations)
 out of a pool of  2 trial point group operations.


The dynamic configuration has the point symmetry C_1 .


Analysis of structural, dynamic, and magnetic symmetry:
=====================================================================
 Subroutine PRICEL returns:
 Original cell was already a primitive cell.
 

 Routine SETGRP: Setting up the symmetry group for a 
 triclinic supercell.


 Subroutine GETGRP returns: Found  1 space group operations
 (whereof  1 operations were pure point group operations)
 out of a pool of  2 trial point group operations.


The overall configuration has the point symmetry C_1 .


 Subroutine INISYM returns: Found  1 space group operations
 (whereof  1 operations are pure point group operations),
 and found     1 'primitive' translations


----------------------------------------------------------------------------------------

                                     Primitive cell                                     

  volume of cell :      63.7955

  direct lattice vectors                    reciprocal lattice vectors
     3.995573831 -0.000221273  0.000432059     0.250276946  0.000013826 -0.000027024
    -0.000220667  3.994130823 -0.000249174     0.000013864  0.250367364  0.000015505
     0.000431644 -0.000247586  3.997502481    -0.000027050  0.000015604  0.250156196

  length of vectors
     3.995573860  3.994130837  3.997502512     0.250276948  0.250367365  0.250156198

  position of ions in fractional coordinates (direct lattice)
     0.494697861  0.501453925  0.997382071
     0.494955967  0.001867469  0.497560418
     0.995278968  0.504482993  0.495409166
     0.996119852  0.001936199  0.998440005
     0.495696515  0.502012535  0.498023891

  ion indices of the primitive-cell ions
   primitive index   ion index
                 1           1
                 2           2
                 3           3
                 4           4
                 5           5

----------------------------------------------------------------------------------------

 
 
 KPOINTS: KPOINTS created by Atomic Simulation Env

Automatic generation of k-mesh.
 Grid dimensions read from file:
 generate k-points for:    7    7    7

 Generating k-lattice:

  Cartesian coordinates                     Fractional coordinates (reciprocal lattice)
     0.035753849  0.000001975 -0.000003861     0.142857143 -0.000000000 -0.000000000
     0.000001981  0.035766766  0.000002215    -0.000000000  0.142857143 -0.000000000
    -0.000003864  0.000002229  0.035736599     0.000000000 -0.000000000  0.142857143

  Length of vectors
     0.035753850  0.035766766  0.035736600

  Shift w.r.t. Gamma in fractional coordinates (k-lattice)
     0.000000000  0.000000000  0.000000000

 TETIRR: Found   1026 inequivalent tetrahedra from     2058
 
 Subroutine IBZKPT returns following result:
 ===========================================
 
 Found    172 irreducible k-points:
 
 Following reciprocal coordinates:
            Coordinates               Weight
  0.000000  0.000000  0.000000      1.000000
  0.142857 -0.000000 -0.000000      2.000000
  0.285714 -0.000000 -0.000000      2.000000
  0.428571 -0.000000 -0.000000      2.000000
  0.000000  0.142857 -0.000000      2.000000
  0.142857  0.142857 -0.000000      2.000000
  0.285714  0.142857 -0.000000      2.000000
  0.428571  0.142857 -0.000000      2.000000
 -0.428571  0.142857 -0.000000      2.000000
 -0.285714  0.142857 -0.000000      2.000000
 -0.142857  0.142857 -0.000000      2.000000
  0.000000  0.285714  0.000000      2.000000
  0.142857  0.285714  0.000000      2.000000
  0.285714  0.285714  0.000000      2.000000
  0.428571  0.285714  0.000000      2.000000
 -0.428571  0.285714  0.000000      2.000000
 -0.285714  0.285714  0.000000      2.000000
 -0.142857  0.285714  0.000000      2.000000
  0.000000  0.428571 -0.000000      2.000000
  0.142857  0.428571 -0.000000      2.000000
  0.285714  0.428571 -0.000000      2.000000
  0.428571  0.428571 -0.000000      2.000000
 -0.428571  0.428571 -0.000000      2.000000
 -0.285714  0.428571 -0.000000      2.000000
 -0.142857  0.428571 -0.000000      2.000000
 -0.000000  0.000000  0.142857      2.000000
  0.142857 -0.000000  0.142857      2.000000
  0.285714  0.000000  0.142857      2.000000
  0.428571 -0.000000  0.142857      2.000000
 -0.428571  0.000000  0.142857      2.000000
 -0.285714  0.000000  0.142857      2.000000
 -0.142857  0.000000  0.142857      2.000000
  0.000000  0.142857  0.142857      2.000000
  0.142857  0.142857  0.142857      2.000000
  0.285714  0.142857  0.142857      2.000000
  0.428571  0.142857  0.142857      2.000000
 -0.428571  0.142857  0.142857      2.000000
 -0.285714  0.142857  0.142857      2.000000
 -0.142857  0.142857  0.142857      2.000000
  0.000000  0.285714  0.142857      2.000000
  0.142857  0.285714  0.142857      2.000000
  0.285714  0.285714  0.142857      2.000000
  0.428571  0.285714  0.142857      2.000000
 -0.428571  0.285714  0.142857      2.000000
 -0.285714  0.285714  0.142857      2.000000
 -0.142857  0.285714  0.142857      2.000000
  0.000000  0.428571  0.142857      2.000000
  0.142857  0.428571  0.142857      2.000000
  0.285714  0.428571  0.142857      2.000000
  0.428571  0.428571  0.142857      2.000000
 -0.428571  0.428571  0.142857      2.000000
 -0.285714  0.428571  0.142857      2.000000
 -0.142857  0.428571  0.142857      2.000000
 -0.000000 -0.428571  0.142857      2.000000
  0.142857 -0.428571  0.142857      2.000000
  0.285714 -0.428571  0.142857      2.000000
  0.428571 -0.428571  0.142857      2.000000
 -0.428571 -0.428571  0.142857      2.000000
 -0.285714 -0.428571  0.142857      2.000000
 -0.142857 -0.428571  0.142857      2.000000
 -0.000000 -0.285714  0.142857      2.000000
  0.142857 -0.285714  0.142857      2.000000
  0.285714 -0.285714  0.142857      2.000000
  0.428571 -0.285714  0.142857      2.000000
 -0.428571 -0.285714  0.142857      2.000000
 -0.285714 -0.285714  0.142857      2.000000
 -0.142857 -0.285714  0.142857      2.000000
  0.000000 -0.142857  0.142857      2.000000
  0.142857 -0.142857  0.142857      2.000000
  0.285714 -0.142857  0.142857      2.000000
  0.428571 -0.142857  0.142857      2.000000
 -0.428571 -0.142857  0.142857      2.000000
 -0.285714 -0.142857  0.142857      2.000000
 -0.142857 -0.142857  0.142857      2.000000
 -0.000000  0.000000  0.285714      2.000000
  0.142857 -0.000000  0.285714      2.000000
  0.285714 -0.000000  0.285714      2.000000
  0.428571 -0.000000  0.285714      2.000000
 -0.428571 -0.000000  0.285714      2.000000
 -0.285714  0.000000  0.285714      2.000000
 -0.142857  0.000000  0.285714      2.000000
 -0.000000  0.142857  0.285714      2.000000
  0.142857  0.142857  0.285714      2.000000
  0.285714  0.142857  0.285714      2.000000
  0.428571  0.142857  0.285714      2.000000
 -0.428571  0.142857  0.285714      2.000000
 -0.285714  0.142857  0.285714      2.000000
 -0.142857  0.142857  0.285714      2.000000
  0.000000  0.285714  0.285714      2.000000
  0.142857  0.285714  0.285714      2.000000
  0.285714  0.285714  0.285714      2.000000
  0.428571  0.285714  0.285714      2.000000
 -0.428571  0.285714  0.285714      2.000000
 -0.285714  0.285714  0.285714      2.000000
 -0.142857  0.285714  0.285714      2.000000
  0.000000  0.428571  0.285714      2.000000
  0.142857  0.428571  0.285714      2.000000
  0.285714  0.428571  0.285714      2.000000
  0.428571  0.428571  0.285714      2.000000
 -0.428571  0.428571  0.285714      2.000000
 -0.285714  0.428571  0.285714      2.000000
 -0.142857  0.428571  0.285714      2.000000
 -0.000000 -0.428571  0.285714      2.000000
  0.142857 -0.428571  0.285714      2.000000
  0.285714 -0.428571  0.285714      2.000000
  0.428571 -0.428571  0.285714      2.000000
 -0.428571 -0.428571  0.285714      2.000000
 -0.285714 -0.428571  0.285714      2.000000
 -0.142857 -0.428571  0.285714      2.000000
  0.000000 -0.285714  0.285714      2.000000
  0.142857 -0.285714  0.285714      2.000000
  0.285714 -0.285714  0.285714      2.000000
  0.428571 -0.285714  0.285714      2.000000
 -0.428571 -0.285714  0.285714      2.000000
 -0.285714 -0.285714  0.285714      2.000000
 -0.142857 -0.285714  0.285714      2.000000
 -0.000000 -0.142857  0.285714      2.000000
  0.142857 -0.142857  0.285714      2.000000
  0.285714 -0.142857  0.285714      2.000000
  0.428571 -0.142857  0.285714      2.000000
 -0.428571 -0.142857  0.285714      2.000000
 -0.285714 -0.142857  0.285714      2.000000
 -0.142857 -0.142857  0.285714      2.000000
 -0.000000 -0.000000  0.428571      2.000000
  0.142857 -0.000000  0.428571      2.000000
  0.285714 -0.000000  0.428571      2.000000
  0.428571 -0.000000  0.428571      2.000000
 -0.428571  0.000000  0.428571      2.000000
 -0.285714  0.000000  0.428571      2.000000
 -0.142857  0.000000  0.428571      2.000000
  0.000000  0.142857  0.428571      2.000000
  0.142857  0.142857  0.428571      2.000000
  0.285714  0.142857  0.428571      2.000000
  0.428571  0.142857  0.428571      2.000000
 -0.428571  0.142857  0.428571      2.000000
 -0.285714  0.142857  0.428571      2.000000
 -0.142857  0.142857  0.428571      2.000000
  0.000000  0.285714  0.428571      2.000000
  0.142857  0.285714  0.428571      2.000000
  0.285714  0.285714  0.428571      2.000000
  0.428571  0.285714  0.428571      2.000000
 -0.428571  0.285714  0.428571      2.000000
 -0.285714  0.285714  0.428571      2.000000
 -0.142857  0.285714  0.428571      2.000000
  0.000000  0.428571  0.428571      2.000000
  0.142857  0.428571  0.428571      2.000000
  0.285714  0.428571  0.428571      2.000000
  0.428571  0.428571  0.428571      2.000000
 -0.428571  0.428571  0.428571      2.000000
 -0.285714  0.428571  0.428571      2.000000
 -0.142857  0.428571  0.428571      2.000000
  0.000000 -0.428571  0.428571      2.000000
  0.142857 -0.428571  0.428571      2.000000
  0.285714 -0.428571  0.428571      2.000000
  0.428571 -0.428571  0.428571      2.000000
 -0.428571 -0.428571  0.428571      2.000000
 -0.285714 -0.428571  0.428571      2.000000
 -0.142857 -0.428571  0.428571      2.000000
 -0.000000 -0.285714  0.428571      2.000000
  0.142857 -0.285714  0.428571      2.000000
  0.285714 -0.285714  0.428571      2.000000
  0.428571 -0.285714  0.428571      2.000000
 -0.428571 -0.285714  0.428571      2.000000
 -0.285714 -0.285714  0.428571      2.000000
 -0.142857 -0.285714  0.428571      2.000000
  0.000000 -0.142857  0.428571      2.000000
  0.142857 -0.142857  0.428571      2.000000
  0.285714 -0.142857  0.428571      2.000000
  0.428571 -0.142857  0.428571      2.000000
 -0.428571 -0.142857  0.428571      2.000000
 -0.285714 -0.142857  0.428571      2.000000
 -0.142857 -0.142857  0.428571      2.000000
 
 Following cartesian coordinates:
            Coordinates               Weight
  0.000000  0.000000  0.000000      1.000000
  0.035754  0.000002 -0.000004      2.000000
  0.071508  0.000004 -0.000008      2.000000
  0.107262  0.000006 -0.000012      2.000000
  0.000002  0.035767  0.000002      2.000000
  0.035756  0.035769 -0.000002      2.000000
  0.071510  0.035771 -0.000006      2.000000
  0.107264  0.035773 -0.000009      2.000000
 -0.107260  0.035761  0.000014      2.000000
 -0.071506  0.035763  0.000010      2.000000
 -0.035752  0.035765  0.000006      2.000000
  0.000004  0.071534  0.000004      2.000000
  0.035758  0.071536  0.000001      2.000000
  0.071512  0.071537 -0.000003      2.000000
  0.107266  0.071539 -0.000007      2.000000
 -0.107258  0.071528  0.000016      2.000000
 -0.071504  0.071530  0.000012      2.000000
 -0.035750  0.071532  0.000008      2.000000
  0.000006  0.107300  0.000007      2.000000
  0.035760  0.107302  0.000003      2.000000
  0.071514  0.107304 -0.000001      2.000000
  0.107267  0.107306 -0.000005      2.000000
 -0.107256  0.107294  0.000018      2.000000
 -0.071502  0.107296  0.000014      2.000000
 -0.035748  0.107298  0.000011      2.000000
 -0.000004  0.000002  0.035737      2.000000
  0.035750  0.000004  0.035733      2.000000
  0.071504  0.000006  0.035729      2.000000
  0.107258  0.000008  0.035725      2.000000
 -0.107265 -0.000004  0.035748      2.000000
 -0.071512 -0.000002  0.035744      2.000000
 -0.035758  0.000000  0.035740      2.000000
 -0.000002  0.035769  0.035739      2.000000
  0.035752  0.035771  0.035735      2.000000
  0.071506  0.035773  0.035731      2.000000
  0.107260  0.035775  0.035727      2.000000
 -0.107263  0.035763  0.035750      2.000000
 -0.071510  0.035765  0.035747      2.000000
 -0.035756  0.035767  0.035743      2.000000
  0.000000  0.071536  0.035741      2.000000
  0.035754  0.071538  0.035737      2.000000
  0.071508  0.071540  0.035733      2.000000
  0.107262  0.071542  0.035729      2.000000
 -0.107261  0.071530  0.035753      2.000000
 -0.071508  0.071532  0.035749      2.000000
 -0.035754  0.071534  0.035745      2.000000
  0.000002  0.107303  0.035743      2.000000
  0.035756  0.107305  0.035739      2.000000
  0.071510  0.107306  0.035736      2.000000
  0.107264  0.107308  0.035732      2.000000
 -0.107259  0.107297  0.035755      2.000000
 -0.071506  0.107299  0.035751      2.000000
 -0.035752  0.107301  0.035747      2.000000
 -0.000010 -0.107298  0.035730      2.000000
  0.035744 -0.107296  0.035726      2.000000
  0.071498 -0.107294  0.035722      2.000000
  0.107252 -0.107292  0.035718      2.000000
 -0.107271 -0.107304  0.035742      2.000000
 -0.071518 -0.107302  0.035738      2.000000
 -0.035764 -0.107300  0.035734      2.000000
 -0.000008 -0.071531  0.035732      2.000000
  0.035746 -0.071529  0.035728      2.000000
  0.071500 -0.071527  0.035724      2.000000
  0.107254 -0.071525  0.035721      2.000000
 -0.107269 -0.071537  0.035744      2.000000
 -0.071516 -0.071535  0.035740      2.000000
 -0.035762 -0.071533  0.035736      2.000000
 -0.000006 -0.035765  0.035734      2.000000
  0.035748 -0.035763  0.035731      2.000000
  0.071502 -0.035761  0.035727      2.000000
  0.107256 -0.035759  0.035723      2.000000
 -0.107267 -0.035770  0.035746      2.000000
 -0.071514 -0.035768  0.035742      2.000000
 -0.035760 -0.035767  0.035738      2.000000
 -0.000008  0.000004  0.071473      2.000000
  0.035746  0.000006  0.071469      2.000000
  0.071500  0.000008  0.071465      2.000000
  0.107254  0.000010  0.071462      2.000000
 -0.107269 -0.000001  0.071485      2.000000
 -0.071515  0.000001  0.071481      2.000000
 -0.035762  0.000002  0.071477      2.000000
 -0.000006  0.035771  0.071475      2.000000
  0.035748  0.035773  0.071472      2.000000
  0.071502  0.035775  0.071468      2.000000
  0.107256  0.035777  0.071464      2.000000
 -0.107267  0.035765  0.071487      2.000000
 -0.071513  0.035767  0.071483      2.000000
 -0.035760  0.035769  0.071479      2.000000
 -0.000004  0.071538  0.071478      2.000000
  0.035750  0.071540  0.071474      2.000000
  0.071504  0.071542  0.071470      2.000000
  0.107258  0.071544  0.071466      2.000000
 -0.107265  0.071532  0.071489      2.000000
 -0.071511  0.071534  0.071485      2.000000
 -0.035758  0.071536  0.071481      2.000000
 -0.000002  0.107305  0.071480      2.000000
  0.035752  0.107307  0.071476      2.000000
  0.071506  0.107309  0.071472      2.000000
  0.107260  0.107311  0.071468      2.000000
 -0.107263  0.107299  0.071491      2.000000
 -0.071509  0.107301  0.071488      2.000000
 -0.035756  0.107303  0.071484      2.000000
 -0.000014 -0.107296  0.071467      2.000000
  0.035740 -0.107294  0.071463      2.000000
  0.071494 -0.107292  0.071459      2.000000
  0.107248 -0.107290  0.071455      2.000000
 -0.107275 -0.107302  0.071478      2.000000
 -0.071521 -0.107300  0.071474      2.000000
 -0.035768 -0.107298  0.071470      2.000000
 -0.000012 -0.071529  0.071469      2.000000
  0.035742 -0.071527  0.071465      2.000000
  0.071496 -0.071525  0.071461      2.000000
  0.107250 -0.071523  0.071457      2.000000
 -0.107273 -0.071535  0.071480      2.000000
 -0.071519 -0.071533  0.071476      2.000000
 -0.035766 -0.071531  0.071473      2.000000
 -0.000010 -0.035762  0.071471      2.000000
  0.035744 -0.035760  0.071467      2.000000
  0.071498 -0.035758  0.071463      2.000000
  0.107252 -0.035756  0.071459      2.000000
 -0.107271 -0.035768  0.071483      2.000000
 -0.071517 -0.035766  0.071479      2.000000
 -0.035764 -0.035764  0.071475      2.000000
 -0.000012  0.000007  0.107210      2.000000
  0.035742  0.000009  0.107206      2.000000
  0.071496  0.000011  0.107202      2.000000
  0.107250  0.000013  0.107198      2.000000
 -0.107273  0.000001  0.107221      2.000000
 -0.071519  0.000003  0.107218      2.000000
 -0.035765  0.000005  0.107214      2.000000
 -0.000010  0.035773  0.107212      2.000000
  0.035744  0.035775  0.107208      2.000000
  0.071498  0.035777  0.107204      2.000000
  0.107252  0.035779  0.107200      2.000000
 -0.107271  0.035768  0.107224      2.000000
 -0.071517  0.035770  0.107220      2.000000
 -0.035763  0.035771  0.107216      2.000000
 -0.000008  0.071540  0.107214      2.000000
  0.035746  0.071542  0.107210      2.000000
  0.071500  0.071544  0.107207      2.000000
  0.107254  0.071546  0.107203      2.000000
 -0.107269  0.071534  0.107226      2.000000
 -0.071515  0.071536  0.107222      2.000000
 -0.035761  0.071538  0.107218      2.000000
 -0.000006  0.107307  0.107216      2.000000
  0.035748  0.107309  0.107213      2.000000
  0.071502  0.107311  0.107209      2.000000
  0.107256  0.107313  0.107205      2.000000
 -0.107267  0.107301  0.107228      2.000000
 -0.071513  0.107303  0.107224      2.000000
 -0.035760  0.107305  0.107220      2.000000
 -0.000018 -0.107294  0.107203      2.000000
  0.035736 -0.107292  0.107199      2.000000
  0.071490 -0.107290  0.107195      2.000000
  0.107244 -0.107288  0.107192      2.000000
 -0.107279 -0.107300  0.107215      2.000000
 -0.071525 -0.107298  0.107211      2.000000
 -0.035771 -0.107296  0.107207      2.000000
 -0.000016 -0.071527  0.107205      2.000000
  0.035738 -0.071525  0.107202      2.000000
  0.071492 -0.071523  0.107198      2.000000
  0.107246 -0.071521  0.107194      2.000000
 -0.107277 -0.071533  0.107217      2.000000
 -0.071523 -0.071531  0.107213      2.000000
 -0.035769 -0.071529  0.107209      2.000000
 -0.000014 -0.035760  0.107208      2.000000
  0.035740 -0.035758  0.107204      2.000000
  0.071494 -0.035756  0.107200      2.000000
  0.107248 -0.035754  0.107196      2.000000
 -0.107275 -0.035766  0.107219      2.000000
 -0.071521 -0.035764  0.107215      2.000000
 -0.035767 -0.035762  0.107211      2.000000
 


--------------------------------------------------------------------------------------------------------




 Dimension of arrays:
   k-points           NKPTS =    172   k-points in BZ     NKDIM =    172   number of bands    NBANDS=     20
   number of dos      NEDOS =    301   number of ions     NIONS =      5
   non local maximal  LDIM  =      5   non local SUM 2l+1 LMDIM =     13
   total plane-waves  NPLWV = 125000
   max r-space proj   IRMAX =      1   max aug-charges    IRDMAX=  85639
   dimension x,y,z NGX =    50 NGY =   50 NGZ =   50
   dimension x,y,z NGXF=   100 NGYF=  100 NGZF=  100
   support grid    NGXF=   100 NGYF=  100 NGZF=  100
   ions per type =               3   1   1
   NGX,Y,Z   is equivalent  to a cutoff of  20.80, 20.81, 20.79 a.u.
   NGXF,Y,Z  is equivalent  to a cutoff of  41.61, 41.62, 41.59 a.u.

 Based on PREC, I would recommend the following setting:
   dimension x,y,z NGX =    30 NGY =   30 NGZ =   30

 SYSTEM =  unknown system                          
 POSCAR =  Li Se  F                                

 Startparameter for this run:
   NWRITE =      2    write-flag & timer
   PREC   = accura    normal or accurate (medium, high low for compatibility)
   ISTART =      1    job   : 0-new  1-cont  2-samecut
   ICHARG =      0    charge: 1-file 2-atom 10-const
   ISPIN  =      2    spin polarized calculation?
   LNONCOLLINEAR =      F non collinear calculations
   LSORBIT =      F    spin-orbit coupling
   INIWAV =      1    electr: 0-lowe 1-rand  2-diag
   LASPH  =      F    aspherical Exc in radial PAW
   METAGGA=      F    non-selfconsistent MetaGGA calc.

 Electronic Relaxation 1
   ENCUT  =  520.0 eV  38.22 Ry    6.18 a.u.   7.43  7.43  7.43*2*pi/ulx,y,z
   ENINI  =  520.0     initial cutoff
   ENAUG  =  613.6 eV  augmentation charge cutoff
   NELM   =     60;   NELMIN=  8; NELMDL=  0     # of ELM steps 
   EDIFF  = 0.5E-04   stopping-criterion for ELM
   LREAL  =      F    real-space projection
   NLSPLINE    = F    spline interpolate recip. space projectors
   LCOMPAT=      F    compatible to vasp.4.4
   GGA_COMPAT  = T    GGA compatible to vasp.4.4-vasp.4.6
   LMAXPAW     = -100 max onsite density
   LMAXMIX     =    2 max onsite mixed and CHGCAR
   VOSKOWN=      0    Vosko Wilk Nusair interpolation
   ROPT   =    0.00000   0.00000   0.00000
 Ionic relaxation
   EDIFFG = -.2E-01   stopping-criterion for IOM
   NSW    =      0    number of steps for IOM
   NBLOCK =      1;   KBLOCK =      1    inner block; outer block 
   IBRION =     -1    ionic relax: 0-MD 1-quasi-New 2-CG
   NFREE  =      1    steps in history (QN), initial steepest desc. (CG)
   ISIF   =      3    stress and relaxation
   IWAVPR =     10    prediction:  0-non 1-charg 2-wave 3-comb
   ISYM   =      2    0-nonsym 1-usesym 2-fastsym
   LCORR  =      T    Harris-Foulkes like correction to forces

   POTIM  = 0.5000    time-step for ionic-motion
   TEIN   =    0.0    initial temperature
   TEBEG  =    0.0;   TEEND  =   0.0 temperature during run
   SMASS  =  -3.00    Nose mass-parameter (am)
   estimated Nose-frequenzy (Omega)   =  0.10E-29 period in steps = 0.13E+47 mass=  -0.365E-27a.u.
   SCALEE = 1.0000    scale energy and forces
   NPACO  =    256;   APACO  = 16.0  distance and # of slots for P.C.
   PSTRESS=    0.0 pullay stress

  Mass of Ions in am
   POMASS =   7.01 78.96 19.00
  Ionic Valenz
   ZVAL   =   1.00  6.00  7.00
  Atomic Wigner-Seitz radii
   RWIGS  =  -1.00 -1.00 -1.00
  virtual crystal weights 
   VCA    =   1.00  1.00  1.00
   NELECT =      16.0000    total number of electrons
   NUPDOWN=      -1.0000    fix difference up-down

 DOS related values:
   EMIN   =  10.00;   EMAX   =-10.00  energy-range for DOS
   EFERMI =   0.00
   ISMEAR =    -5;   SIGMA  =   0.05  broadening in eV -4-tet -1-fermi 0-gaus

 Electronic relaxation 2 (details)
   IALGO  =     38    algorithm
   LDIAG  =      T    sub-space diagonalisation (order eigenvalues)
   LSUBROT=      F    optimize rotation matrix (better conditioning)
   TURBO    =      0    0=normal 1=particle mesh
   IRESTART =      0    0=no restart 2=restart with 2 vectors
   NREBOOT  =      0    no. of reboots
   NMIN     =      0    reboot dimension
   EREF     =   0.00    reference energy to select bands
   IMIX   =      4    mixing-type and parameters
     AMIX     =   0.40;   BMIX     =  1.00
     AMIX_MAG =   1.60;   BMIX_MAG =  1.00
     AMIN     =   0.10
     WC   =   100.;   INIMIX=   1;  MIXPRE=   1;  MAXMIX= -45

 Intra band minimization:
   WEIMIN = 0.0000     energy-eigenvalue tresh-hold
   EBREAK =  0.63E-06  absolut break condition
   DEPER  =   0.30     relativ break condition  

   TIME   =   0.40     timestep for ELM

  volume/ion in A,a.u.               =      12.76        86.10
  Fermi-wavevector in a.u.,A,eV,Ry     =   1.032408  1.950969 14.501996  1.065867
  Thomas-Fermi vector in A             =   2.166604
 
 Write flags
   LWAVE        =      T    write WAVECAR
   LDOWNSAMPLE  =      F    k-point downsampling of WAVECAR
   LCHARG       =      T    write CHGCAR
   LVTOT        =      F    write LOCPOT, total local potential
   LVHAR        =      T    write LOCPOT, Hartree potential only
   LELF         =      F    write electronic localiz. function (ELF)
   LORBIT       =     11    0 simple, 1 ext, 2 COOP (PROOUT), +10 PAW based schemes


 Dipole corrections
   LMONO  =      F    monopole corrections only (constant potential shift)
   LDIPOL =      F    correct potential (dipole corrections)
   IDIPOL =      0    1-x, 2-y, 3-z, 4-all directions 
   EPSILON=  1.0000000 bulk dielectric constant

 Exchange correlation treatment:
   GGA     =    PE    GGA type
   LEXCH   =     8    internal setting for exchange type
   VOSKOWN=      0    Vosko Wilk Nusair interpolation
   LHFCALC =     F    Hartree Fock is set to
   LHFONE  =     F    Hartree Fock one center treatment
   AEXX    =    0.0000 exact exchange contribution

 Linear response parameters
   LEPSILON=     F    determine dielectric tensor
   LRPA    =     F    only Hartree local field effects (RPA)
   LNABLA  =     F    use nabla operator in PAW spheres
   LVEL    =     F    velocity operator in full k-point grid
   LINTERFAST=   F  fast interpolation
   KINTER  =     0    interpolate to denser k-point grid
   CSHIFT  =0.1000    complex shift for real part using Kramers Kronig
   OMEGAMAX=  -1.0    maximum frequency
   DEG_THRESHOLD= 0.2000000E-02 threshold for treating states as degnerate
   RTIME   =   -0.100 relaxation time in fs
  (WPLASMAI=    0.000 imaginary part of plasma frequency in eV, 0.658/RTIME)
   DFIELD  = 0.0000000 0.0000000 0.0000000 field for delta impulse in time
 
 Orbital magnetization related:
   ORBITALMAG=     F  switch on orbital magnetization
   LCHIMAG   =     F  perturbation theory with respect to B field
   DQ        =  0.001000  dq finite difference perturbation B field
   LLRAUG    =     F  two centre corrections for induced B field



--------------------------------------------------------------------------------------------------------


 Static calculation
 charge density and potential will be updated during run
 spin polarized calculation
 Variant of blocked Davidson
 Davidson routine will perform the subspace rotation
 perform sub-space diagonalisation
    after iterative eigenvector-optimisation
 modified Broyden-mixing scheme, WC =      100.0
 initial mixing is a Kerker type mixing with AMIX =  0.4000 and BMIX =      1.0000
 Hartree-type preconditioning will be used
 using additional bands           12
 reciprocal scheme for non local part
 use partial core corrections
 calculate Harris-corrections to forces 
   (improved forces if not selfconsistent)
 use gradient corrections 
 use of overlap-Matrix (Vanderbilt PP)
 Fermi weights with tetrahedron method with Bloechl corrections


--------------------------------------------------------------------------------------------------------


  energy-cutoff  :      520.00
  volume of cell :       63.80
      direct lattice vectors                 reciprocal lattice vectors
     3.995573831 -0.000221273  0.000432059     0.250276946  0.000013826 -0.000027024
    -0.000220667  3.994130823 -0.000249174     0.000013864  0.250367364  0.000015505
     0.000431644 -0.000247586  3.997502481    -0.000027050  0.000015604  0.250156196

  length of vectors
     3.995573860  3.994130837  3.997502512     0.250276948  0.250367365  0.250156198


 
 old parameters found on file WAVECAR:
  energy-cutoff  :      520.00
  volume of cell :       63.80
      direct lattice vectors                 reciprocal lattice vectors
     3.995573831 -0.000221273  0.000432059     0.250276946  0.000013826 -0.000027024
    -0.000220667  3.994130823 -0.000249174     0.000013864  0.250367364  0.000015505
     0.000431644 -0.000247586  3.997502481    -0.000027050  0.000015604  0.250156196

  length of vectors

 
 k-points in units of 2pi/SCALE and weight: KPOINTS created by Atomic Simulation Env
   0.00000000  0.00000000  0.00000000       0.003
   0.03575385  0.00000198 -0.00000386       0.006
   0.07150770  0.00000395 -0.00000772       0.006
   0.10726155  0.00000593 -0.00001158       0.006
   0.00000198  0.03576677  0.00000222       0.006
   0.03575583  0.03576874 -0.00000165       0.006
   0.07150968  0.03577072 -0.00000551       0.006
   0.10726353  0.03577269 -0.00000937       0.006
  -0.10725957  0.03576084  0.00001380       0.006
  -0.07150572  0.03576282  0.00000994       0.006
  -0.03575187  0.03576479  0.00000608       0.006
   0.00000396  0.07153353  0.00000443       0.006
   0.03575781  0.07153551  0.00000057       0.006
   0.07151166  0.07153748 -0.00000329       0.006
   0.10726551  0.07153946 -0.00000715       0.006
  -0.10725759  0.07152761  0.00001601       0.006
  -0.07150374  0.07152958  0.00001215       0.006
  -0.03574989  0.07153156  0.00000829       0.006
   0.00000594  0.10730030  0.00000665       0.006
   0.03575979  0.10730227  0.00000278       0.006
   0.07151364  0.10730425 -0.00000108       0.006
   0.10726749  0.10730622 -0.00000494       0.006
  -0.10725561  0.10729437  0.00001823       0.006
  -0.07150176  0.10729635  0.00001437       0.006
  -0.03574791  0.10729832  0.00001051       0.006
  -0.00000386  0.00000223  0.03573660       0.006
   0.03574999  0.00000420  0.03573274       0.006
   0.07150383  0.00000618  0.03572888       0.006
   0.10725768  0.00000815  0.03572502       0.006
  -0.10726541 -0.00000370  0.03574818       0.006
  -0.07151156 -0.00000172  0.03574432       0.006
  -0.03575771  0.00000025  0.03574046       0.006
  -0.00000188  0.03576900  0.03573881       0.006
   0.03575197  0.03577097  0.03573495       0.006
   0.07150582  0.03577295  0.03573109       0.006
   0.10725966  0.03577492  0.03572723       0.006
  -0.10726343  0.03576307  0.03575040       0.006
  -0.07150958  0.03576505  0.03574654       0.006
  -0.03575573  0.03576702  0.03574268       0.006
   0.00000010  0.07153576  0.03574103       0.006
   0.03575395  0.07153774  0.03573717       0.006
   0.07150780  0.07153971  0.03573331       0.006
   0.10726164  0.07154169  0.03572945       0.006
  -0.10726145  0.07152984  0.03575261       0.006
  -0.07150760  0.07153181  0.03574875       0.006
  -0.03575375  0.07153379  0.03574489       0.006
   0.00000208  0.10730253  0.03574324       0.006
   0.03575593  0.10730450  0.03573938       0.006
   0.07150978  0.10730648  0.03573552       0.006
   0.10726363  0.10730845  0.03573166       0.006
  -0.10725947  0.10729660  0.03575483       0.006
  -0.07150562  0.10729858  0.03575097       0.006
  -0.03575177  0.10730055  0.03574711       0.006
  -0.00000981 -0.10729807  0.03572995       0.006
   0.03574404 -0.10729609  0.03572609       0.006
   0.07149789 -0.10729412  0.03572223       0.006
   0.10725174 -0.10729214  0.03571837       0.006
  -0.10727135 -0.10730400  0.03574154       0.006
  -0.07151750 -0.10730202  0.03573768       0.006
  -0.03576366 -0.10730004  0.03573381       0.006
  -0.00000783 -0.07153130  0.03573217       0.006
   0.03574602 -0.07152933  0.03572831       0.006
   0.07149987 -0.07152735  0.03572445       0.006
   0.10725372 -0.07152538  0.03572059       0.006
  -0.10726937 -0.07153723  0.03574375       0.006
  -0.07151552 -0.07153525  0.03573989       0.006
  -0.03576167 -0.07153328  0.03573603       0.006
  -0.00000584 -0.03576454  0.03573438       0.006
   0.03574800 -0.03576256  0.03573052       0.006
   0.07150185 -0.03576059  0.03572666       0.006
   0.10725570 -0.03575861  0.03572280       0.006
  -0.10726739 -0.03577046  0.03574597       0.006
  -0.07151354 -0.03576849  0.03574211       0.006
  -0.03575969 -0.03576651  0.03573824       0.006
  -0.00000773  0.00000446  0.07147320       0.006
   0.03574612  0.00000643  0.07146934       0.006
   0.07149997  0.00000841  0.07146548       0.006
   0.10725382  0.00001038  0.07146162       0.006
  -0.10726928 -0.00000147  0.07148478       0.006
  -0.07151543  0.00000051  0.07148092       0.006
  -0.03576158  0.00000248  0.07147706       0.006
  -0.00000575  0.03577122  0.07147541       0.006
   0.03574810  0.03577320  0.07147155       0.006
   0.07150195  0.03577517  0.07146769       0.006
   0.10725580  0.03577715  0.07146383       0.006
  -0.10726730  0.03576530  0.07148700       0.006
  -0.07151345  0.03576727  0.07148314       0.006
  -0.03575960  0.03576925  0.07147927       0.006
  -0.00000377  0.07153799  0.07147763       0.006
   0.03575008  0.07153997  0.07147377       0.006
   0.07150393  0.07154194  0.07146991       0.006
   0.10725778  0.07154392  0.07146605       0.006
  -0.10726532  0.07153207  0.07148921       0.006
  -0.07151147  0.07153404  0.07148535       0.006
  -0.03575762  0.07153602  0.07148149       0.006
  -0.00000179  0.10730476  0.07147984       0.006
   0.03575206  0.10730673  0.07147598       0.006
   0.07150591  0.10730871  0.07147212       0.006
   0.10725976  0.10731068  0.07146826       0.006
  -0.10726334  0.10729883  0.07149143       0.006
  -0.07150949  0.10730081  0.07148757       0.006
  -0.03575564  0.10730278  0.07148370       0.006
  -0.00001367 -0.10729584  0.07146655       0.006
   0.03574018 -0.10729387  0.07146269       0.006
   0.07149403 -0.10729189  0.07145883       0.006
   0.10724788 -0.10728992  0.07145497       0.006
  -0.10727522 -0.10730177  0.07147814       0.006
  -0.07152137 -0.10729979  0.07147427       0.006
  -0.03576752 -0.10729782  0.07147041       0.006
  -0.00001169 -0.07152907  0.07146877       0.006
   0.03574216 -0.07152710  0.07146491       0.006
   0.07149601 -0.07152512  0.07146105       0.006
   0.10724986 -0.07152315  0.07145719       0.006
  -0.10727324 -0.07153500  0.07148035       0.006
  -0.07151939 -0.07153302  0.07147649       0.006
  -0.03576554 -0.07153105  0.07147263       0.006
  -0.00000971 -0.03576231  0.07147098       0.006
   0.03574414 -0.03576033  0.07146712       0.006
   0.07149799 -0.03575836  0.07146326       0.006
   0.10725184 -0.03575638  0.07145940       0.006
  -0.10727126 -0.03576823  0.07148257       0.006
  -0.07151741 -0.03576626  0.07147870       0.006
  -0.03576356 -0.03576428  0.07147484       0.006
  -0.00001159  0.00000669  0.10720980       0.006
   0.03574226  0.00000866  0.10720594       0.006
   0.07149611  0.00001064  0.10720208       0.006
   0.10724996  0.00001261  0.10719822       0.006
  -0.10727314  0.00000076  0.10722138       0.006
  -0.07151929  0.00000274  0.10721752       0.006
  -0.03576544  0.00000471  0.10721366       0.006
  -0.00000961  0.03577345  0.10721201       0.006
   0.03574424  0.03577543  0.10720815       0.006
   0.07149809  0.03577740  0.10720429       0.006
   0.10725194  0.03577938  0.10720043       0.006
  -0.10727116  0.03576753  0.10722360       0.006
  -0.07151731  0.03576950  0.10721973       0.006
  -0.03576346  0.03577148  0.10721587       0.006
  -0.00000763  0.07154022  0.10721423       0.006
   0.03574622  0.07154220  0.10721037       0.006
   0.07150007  0.07154417  0.10720651       0.006
   0.10725392  0.07154615  0.10720265       0.006
  -0.10726918  0.07153430  0.10722581       0.006
  -0.07151533  0.07153627  0.10722195       0.006
  -0.03576148  0.07153825  0.10721809       0.006
  -0.00000565  0.10730699  0.10721644       0.006
   0.03574820  0.10730896  0.10721258       0.006
   0.07150205  0.10731094  0.10720872       0.006
   0.10725590  0.10731291  0.10720486       0.006
  -0.10726720  0.10730106  0.10722803       0.006
  -0.07151335  0.10730304  0.10722416       0.006
  -0.03575950  0.10730501  0.10722030       0.006
  -0.00001753 -0.10729361  0.10720315       0.006
   0.03573632 -0.10729164  0.10719929       0.006
   0.07149016 -0.10728966  0.10719543       0.006
   0.10724401 -0.10728769  0.10719157       0.006
  -0.10727908 -0.10729954  0.10721473       0.006
  -0.07152523 -0.10729756  0.10721087       0.006
  -0.03577138 -0.10729559  0.10720701       0.006
  -0.00001555 -0.07152685  0.10720537       0.006
   0.03573830 -0.07152487  0.10720151       0.006
   0.07149215 -0.07152289  0.10719765       0.006
   0.10724599 -0.07152092  0.10719379       0.006
  -0.10727710 -0.07153277  0.10721695       0.006
  -0.07152325 -0.07153080  0.10721309       0.006
  -0.03576940 -0.07152882  0.10720923       0.006
  -0.00001357 -0.03576008  0.10720758       0.006
   0.03574028 -0.03575810  0.10720372       0.006
   0.07149413 -0.03575613  0.10719986       0.006
   0.10724797 -0.03575415  0.10719600       0.006
  -0.10727512 -0.03576600  0.10721916       0.006
  -0.07152127 -0.03576403  0.10721530       0.006
  -0.03576742 -0.03576205  0.10721144       0.006
 
 k-points in reciprocal lattice and weights: KPOINTS created by Atomic Simulation Env
   0.00000000  0.00000000  0.00000000       0.003
   0.14285714 -0.00000000 -0.00000000       0.006
   0.28571429 -0.00000000 -0.00000000       0.006
   0.42857143 -0.00000000 -0.00000000       0.006
   0.00000000  0.14285714 -0.00000000       0.006
   0.14285714  0.14285714 -0.00000000       0.006
   0.28571429  0.14285714 -0.00000000       0.006
   0.42857143  0.14285714 -0.00000000       0.006
  -0.42857143  0.14285714 -0.00000000       0.006
  -0.28571429  0.14285714 -0.00000000       0.006
  -0.14285714  0.14285714 -0.00000000       0.006
   0.00000000  0.28571429  0.00000000       0.006
   0.14285714  0.28571429  0.00000000       0.006
   0.28571429  0.28571429  0.00000000       0.006
   0.42857143  0.28571429  0.00000000       0.006
  -0.42857143  0.28571429  0.00000000       0.006
  -0.28571429  0.28571429  0.00000000       0.006
  -0.14285714  0.28571429  0.00000000       0.006
   0.00000000  0.42857143 -0.00000000       0.006
   0.14285714  0.42857143 -0.00000000       0.006
   0.28571429  0.42857143 -0.00000000       0.006
   0.42857143  0.42857143 -0.00000000       0.006
  -0.42857143  0.42857143 -0.00000000       0.006
  -0.28571429  0.42857143 -0.00000000       0.006
  -0.14285714  0.42857143 -0.00000000       0.006
  -0.00000000  0.00000000  0.14285714       0.006
   0.14285714 -0.00000000  0.14285714       0.006
   0.28571429  0.00000000  0.14285714       0.006
   0.42857143 -0.00000000  0.14285714       0.006
  -0.42857143  0.00000000  0.14285714       0.006
  -0.28571429  0.00000000  0.14285714       0.006
  -0.14285714  0.00000000  0.14285714       0.006
   0.00000000  0.14285714  0.14285714       0.006
   0.14285714  0.14285714  0.14285714       0.006
   0.28571429  0.14285714  0.14285714       0.006
   0.42857143  0.14285714  0.14285714       0.006
  -0.42857143  0.14285714  0.14285714       0.006
  -0.28571429  0.14285714  0.14285714       0.006
  -0.14285714  0.14285714  0.14285714       0.006
   0.00000000  0.28571429  0.14285714       0.006
   0.14285714  0.28571429  0.14285714       0.006
   0.28571429  0.28571429  0.14285714       0.006
   0.42857143  0.28571429  0.14285714       0.006
  -0.42857143  0.28571429  0.14285714       0.006
  -0.28571429  0.28571429  0.14285714       0.006
  -0.14285714  0.28571429  0.14285714       0.006
   0.00000000  0.42857143  0.14285714       0.006
   0.14285714  0.42857143  0.14285714       0.006
   0.28571429  0.42857143  0.14285714       0.006
   0.42857143  0.42857143  0.14285714       0.006
  -0.42857143  0.42857143  0.14285714       0.006
  -0.28571429  0.42857143  0.14285714       0.006
  -0.14285714  0.42857143  0.14285714       0.006
  -0.00000000 -0.42857143  0.14285714       0.006
   0.14285714 -0.42857143  0.14285714       0.006
   0.28571429 -0.42857143  0.14285714       0.006
   0.42857143 -0.42857143  0.14285714       0.006
  -0.42857143 -0.42857143  0.14285714       0.006
  -0.28571429 -0.42857143  0.14285714       0.006
  -0.14285714 -0.42857143  0.14285714       0.006
  -0.00000000 -0.28571429  0.14285714       0.006
   0.14285714 -0.28571429  0.14285714       0.006
   0.28571429 -0.28571429  0.14285714       0.006
   0.42857143 -0.28571429  0.14285714       0.006
  -0.42857143 -0.28571429  0.14285714       0.006
  -0.28571429 -0.28571429  0.14285714       0.006
  -0.14285714 -0.28571429  0.14285714       0.006
   0.00000000 -0.14285714  0.14285714       0.006
   0.14285714 -0.14285714  0.14285714       0.006
   0.28571429 -0.14285714  0.14285714       0.006
   0.42857143 -0.14285714  0.14285714       0.006
  -0.42857143 -0.14285714  0.14285714       0.006
  -0.28571429 -0.14285714  0.14285714       0.006
  -0.14285714 -0.14285714  0.14285714       0.006
  -0.00000000  0.00000000  0.28571429       0.006
   0.14285714 -0.00000000  0.28571429       0.006
   0.28571429 -0.00000000  0.28571429       0.006
   0.42857143 -0.00000000  0.28571429       0.006
  -0.42857143 -0.00000000  0.28571429       0.006
  -0.28571429  0.00000000  0.28571429       0.006
  -0.14285714  0.00000000  0.28571429       0.006
  -0.00000000  0.14285714  0.28571429       0.006
   0.14285714  0.14285714  0.28571429       0.006
   0.28571429  0.14285714  0.28571429       0.006
   0.42857143  0.14285714  0.28571429       0.006
  -0.42857143  0.14285714  0.28571429       0.006
  -0.28571429  0.14285714  0.28571429       0.006
  -0.14285714  0.14285714  0.28571429       0.006
   0.00000000  0.28571429  0.28571429       0.006
   0.14285714  0.28571429  0.28571429       0.006
   0.28571429  0.28571429  0.28571429       0.006
   0.42857143  0.28571429  0.28571429       0.006
  -0.42857143  0.28571429  0.28571429       0.006
  -0.28571429  0.28571429  0.28571429       0.006
  -0.14285714  0.28571429  0.28571429       0.006
   0.00000000  0.42857143  0.28571429       0.006
   0.14285714  0.42857143  0.28571429       0.006
   0.28571429  0.42857143  0.28571429       0.006
   0.42857143  0.42857143  0.28571429       0.006
  -0.42857143  0.42857143  0.28571429       0.006
  -0.28571429  0.42857143  0.28571429       0.006
  -0.14285714  0.42857143  0.28571429       0.006
  -0.00000000 -0.42857143  0.28571429       0.006
   0.14285714 -0.42857143  0.28571429       0.006
   0.28571429 -0.42857143  0.28571429       0.006
   0.42857143 -0.42857143  0.28571429       0.006
  -0.42857143 -0.42857143  0.28571429       0.006
  -0.28571429 -0.42857143  0.28571429       0.006
  -0.14285714 -0.42857143  0.28571429       0.006
   0.00000000 -0.28571429  0.28571429       0.006
   0.14285714 -0.28571429  0.28571429       0.006
   0.28571429 -0.28571429  0.28571429       0.006
   0.42857143 -0.28571429  0.28571429       0.006
  -0.42857143 -0.28571429  0.28571429       0.006
  -0.28571429 -0.28571429  0.28571429       0.006
  -0.14285714 -0.28571429  0.28571429       0.006
  -0.00000000 -0.14285714  0.28571429       0.006
   0.14285714 -0.14285714  0.28571429       0.006
   0.28571429 -0.14285714  0.28571429       0.006
   0.42857143 -0.14285714  0.28571429       0.006
  -0.42857143 -0.14285714  0.28571429       0.006
  -0.28571429 -0.14285714  0.28571429       0.006
  -0.14285714 -0.14285714  0.28571429       0.006
  -0.00000000 -0.00000000  0.42857143       0.006
   0.14285714 -0.00000000  0.42857143       0.006
   0.28571429 -0.00000000  0.42857143       0.006
   0.42857143 -0.00000000  0.42857143       0.006
  -0.42857143  0.00000000  0.42857143       0.006
  -0.28571429  0.00000000  0.42857143       0.006
  -0.14285714  0.00000000  0.42857143       0.006
   0.00000000  0.14285714  0.42857143       0.006
   0.14285714  0.14285714  0.42857143       0.006
   0.28571429  0.14285714  0.42857143       0.006
   0.42857143  0.14285714  0.42857143       0.006
  -0.42857143  0.14285714  0.42857143       0.006
  -0.28571429  0.14285714  0.42857143       0.006
  -0.14285714  0.14285714  0.42857143       0.006
   0.00000000  0.28571429  0.42857143       0.006
   0.14285714  0.28571429  0.42857143       0.006
   0.28571429  0.28571429  0.42857143       0.006
   0.42857143  0.28571429  0.42857143       0.006
  -0.42857143  0.28571429  0.42857143       0.006
  -0.28571429  0.28571429  0.42857143       0.006
  -0.14285714  0.28571429  0.42857143       0.006
   0.00000000  0.42857143  0.42857143       0.006
   0.14285714  0.42857143  0.42857143       0.006
   0.28571429  0.42857143  0.42857143       0.006
   0.42857143  0.42857143  0.42857143       0.006
  -0.42857143  0.42857143  0.42857143       0.006
  -0.28571429  0.42857143  0.42857143       0.006
  -0.14285714  0.42857143  0.42857143       0.006
   0.00000000 -0.42857143  0.42857143       0.006
   0.14285714 -0.42857143  0.42857143       0.006
   0.28571429 -0.42857143  0.42857143       0.006
   0.42857143 -0.42857143  0.42857143       0.006
  -0.42857143 -0.42857143  0.42857143       0.006
  -0.28571429 -0.42857143  0.42857143       0.006
  -0.14285714 -0.42857143  0.42857143       0.006
  -0.00000000 -0.28571429  0.42857143       0.006
   0.14285714 -0.28571429  0.42857143       0.006
   0.28571429 -0.28571429  0.42857143       0.006
   0.42857143 -0.28571429  0.42857143       0.006
  -0.42857143 -0.28571429  0.42857143       0.006
  -0.28571429 -0.28571429  0.42857143       0.006
  -0.14285714 -0.28571429  0.42857143       0.006
   0.00000000 -0.14285714  0.42857143       0.006
   0.14285714 -0.14285714  0.42857143       0.006
   0.28571429 -0.14285714  0.42857143       0.006
   0.42857143 -0.14285714  0.42857143       0.006
  -0.42857143 -0.14285714  0.42857143       0.006
  -0.28571429 -0.14285714  0.42857143       0.006
  -0.14285714 -0.14285714  0.42857143       0.006
 
 position of ions in fractional coordinates (direct lattice) 
   0.49469786  0.50145392  0.99738207
   0.49495597  0.00186747  0.49756042
   0.99527897  0.50448299  0.49540917
   0.99611985  0.00193620  0.99844001
   0.49569651  0.50201254  0.49802389
 
 position of ions in cartesian coordinates  (Angst):
   1.97692169  2.00251618  3.98712609
   1.97784747  0.00722621  1.98921239
   3.97681311  2.01462819  1.98070369
   3.98050096  0.00726582  3.99169630
   1.98069621  2.00487075  1.99094082
 


--------------------------------------------------------------------------------------------------------


 k-point   1 :   0.0000 0.0000 0.0000  plane waves:    1743
 k-point   2 :   0.1429-0.0000-0.0000  plane waves:    1743
 k-point   3 :   0.2857-0.0000-0.0000  plane waves:    1735
 k-point   4 :   0.4286-0.0000-0.0000  plane waves:    1719
 k-point   5 :   0.0000 0.1429-0.0000  plane waves:    1743
 k-point   6 :   0.1429 0.1429-0.0000  plane waves:    1735
 k-point   7 :   0.2857 0.1429-0.0000  plane waves:    1721
 k-point   8 :   0.4286 0.1429-0.0000  plane waves:    1713
 k-point   9 :  -0.4286 0.1429-0.0000  plane waves:    1714
 k-point  10 :  -0.2857 0.1429-0.0000  plane waves:    1721
 k-point  11 :  -0.1429 0.1429-0.0000  plane waves:    1736
 k-point  12 :   0.0000 0.2857 0.0000  plane waves:    1736
 k-point  13 :   0.1429 0.2857 0.0000  plane waves:    1721
 k-point  14 :   0.2857 0.2857 0.0000  plane waves:    1724
 k-point  15 :   0.4286 0.2857 0.0000  plane waves:    1710
 k-point  16 :  -0.4286 0.2857 0.0000  plane waves:    1710
 k-point  17 :  -0.2857 0.2857 0.0000  plane waves:    1724
 k-point  18 :  -0.1429 0.2857 0.0000  plane waves:    1722
 k-point  19 :   0.0000 0.4286-0.0000  plane waves:    1718
 k-point  20 :   0.1429 0.4286-0.0000  plane waves:    1714
 k-point  21 :   0.2857 0.4286-0.0000  plane waves:    1710
 k-point  22 :   0.4286 0.4286-0.0000  plane waves:    1706
 k-point  23 :  -0.4286 0.4286-0.0000  plane waves:    1706
 k-point  24 :  -0.2857 0.4286-0.0000  plane waves:    1710
 k-point  25 :  -0.1429 0.4286-0.0000  plane waves:    1712
 k-point  26 :  -0.0000 0.0000 0.1429  plane waves:    1743
 k-point  27 :   0.1429-0.0000 0.1429  plane waves:    1737
 k-point  28 :   0.2857 0.0000 0.1429  plane waves:    1721
 k-point  29 :   0.4286-0.0000 0.1429  plane waves:    1714
 k-point  30 :  -0.4286 0.0000 0.1429  plane waves:    1714
 k-point  31 :  -0.2857 0.0000 0.1429  plane waves:    1721
 k-point  32 :  -0.1429 0.0000 0.1429  plane waves:    1737
 k-point  33 :   0.0000 0.1429 0.1429  plane waves:    1736
 k-point  34 :   0.1429 0.1429 0.1429  plane waves:    1721
 k-point  35 :   0.2857 0.1429 0.1429  plane waves:    1728
 k-point  36 :   0.4286 0.1429 0.1429  plane waves:    1719
 k-point  37 :  -0.4286 0.1429 0.1429  plane waves:    1719
 k-point  38 :  -0.2857 0.1429 0.1429  plane waves:    1728
 k-point  39 :  -0.1429 0.1429 0.1429  plane waves:    1720
 k-point  40 :   0.0000 0.2857 0.1429  plane waves:    1721
 k-point  41 :   0.1429 0.2857 0.1429  plane waves:    1728
 k-point  42 :   0.2857 0.2857 0.1429  plane waves:    1723
 k-point  43 :   0.4286 0.2857 0.1429  plane waves:    1718
 k-point  44 :  -0.4286 0.2857 0.1429  plane waves:    1718
 k-point  45 :  -0.2857 0.2857 0.1429  plane waves:    1723
 k-point  46 :  -0.1429 0.2857 0.1429  plane waves:    1728
 k-point  47 :   0.0000 0.4286 0.1429  plane waves:    1714
 k-point  48 :   0.1429 0.4286 0.1429  plane waves:    1719
 k-point  49 :   0.2857 0.4286 0.1429  plane waves:    1718
 k-point  50 :   0.4286 0.4286 0.1429  plane waves:    1704
 k-point  51 :  -0.4286 0.4286 0.1429  plane waves:    1704
 k-point  52 :  -0.2857 0.4286 0.1429  plane waves:    1718
 k-point  53 :  -0.1429 0.4286 0.1429  plane waves:    1718
 k-point  54 :  -0.0000-0.4286 0.1429  plane waves:    1715
 k-point  55 :   0.1429-0.4286 0.1429  plane waves:    1720
 k-point  56 :   0.2857-0.4286 0.1429  plane waves:    1718
 k-point  57 :   0.4286-0.4286 0.1429  plane waves:    1704
 k-point  58 :  -0.4286-0.4286 0.1429  plane waves:    1704
 k-point  59 :  -0.2857-0.4286 0.1429  plane waves:    1718
 k-point  60 :  -0.1429-0.4286 0.1429  plane waves:    1718
 k-point  61 :  -0.0000-0.2857 0.1429  plane waves:    1721
 k-point  62 :   0.1429-0.2857 0.1429  plane waves:    1728
 k-point  63 :   0.2857-0.2857 0.1429  plane waves:    1723
 k-point  64 :   0.4286-0.2857 0.1429  plane waves:    1718
 k-point  65 :  -0.4286-0.2857 0.1429  plane waves:    1718
 k-point  66 :  -0.2857-0.2857 0.1429  plane waves:    1723
 k-point  67 :  -0.1429-0.2857 0.1429  plane waves:    1728
 k-point  68 :   0.0000-0.1429 0.1429  plane waves:    1736
 k-point  69 :   0.1429-0.1429 0.1429  plane waves:    1721
 k-point  70 :   0.2857-0.1429 0.1429  plane waves:    1728
 k-point  71 :   0.4286-0.1429 0.1429  plane waves:    1720
 k-point  72 :  -0.4286-0.1429 0.1429  plane waves:    1719
 k-point  73 :  -0.2857-0.1429 0.1429  plane waves:    1728
 k-point  74 :  -0.1429-0.1429 0.1429  plane waves:    1720
 k-point  75 :  -0.0000 0.0000 0.2857  plane waves:    1731
 k-point  76 :   0.1429-0.0000 0.2857  plane waves:    1721
 k-point  77 :   0.2857-0.0000 0.2857  plane waves:    1724
 k-point  78 :   0.4286-0.0000 0.2857  plane waves:    1710
 k-point  79 :  -0.4286-0.0000 0.2857  plane waves:    1710
 k-point  80 :  -0.2857 0.0000 0.2857  plane waves:    1724
 k-point  81 :  -0.1429 0.0000 0.2857  plane waves:    1721
 k-point  82 :  -0.0000 0.1429 0.2857  plane waves:    1721
 k-point  83 :   0.1429 0.1429 0.2857  plane waves:    1728
 k-point  84 :   0.2857 0.1429 0.2857  plane waves:    1721
 k-point  85 :   0.4286 0.1429 0.2857  plane waves:    1718
 k-point  86 :  -0.4286 0.1429 0.2857  plane waves:    1718
 k-point  87 :  -0.2857 0.1429 0.2857  plane waves:    1721
 k-point  88 :  -0.1429 0.1429 0.2857  plane waves:    1728
 k-point  89 :   0.0000 0.2857 0.2857  plane waves:    1724
 k-point  90 :   0.1429 0.2857 0.2857  plane waves:    1723
 k-point  91 :   0.2857 0.2857 0.2857  plane waves:    1708
 k-point  92 :   0.4286 0.2857 0.2857  plane waves:    1714
 k-point  93 :  -0.4286 0.2857 0.2857  plane waves:    1714
 k-point  94 :  -0.2857 0.2857 0.2857  plane waves:    1707
 k-point  95 :  -0.1429 0.2857 0.2857  plane waves:    1722
 k-point  96 :   0.0000 0.4286 0.2857  plane waves:    1710
 k-point  97 :   0.1429 0.4286 0.2857  plane waves:    1718
 k-point  98 :   0.2857 0.4286 0.2857  plane waves:    1714
 k-point  99 :   0.4286 0.4286 0.2857  plane waves:    1713
 k-point 100 :  -0.4286 0.4286 0.2857  plane waves:    1713
 k-point 101 :  -0.2857 0.4286 0.2857  plane waves:    1713
 k-point 102 :  -0.1429 0.4286 0.2857  plane waves:    1718
 k-point 103 :  -0.0000-0.4286 0.2857  plane waves:    1710
 k-point 104 :   0.1429-0.4286 0.2857  plane waves:    1718
 k-point 105 :   0.2857-0.4286 0.2857  plane waves:    1715
 k-point 106 :   0.4286-0.4286 0.2857  plane waves:    1713
 k-point 107 :  -0.4286-0.4286 0.2857  plane waves:    1713
 k-point 108 :  -0.2857-0.4286 0.2857  plane waves:    1714
 k-point 109 :  -0.1429-0.4286 0.2857  plane waves:    1718
 k-point 110 :   0.0000-0.2857 0.2857  plane waves:    1724
 k-point 111 :   0.1429-0.2857 0.2857  plane waves:    1723
 k-point 112 :   0.2857-0.2857 0.2857  plane waves:    1708
 k-point 113 :   0.4286-0.2857 0.2857  plane waves:    1715
 k-point 114 :  -0.4286-0.2857 0.2857  plane waves:    1715
 k-point 115 :  -0.2857-0.2857 0.2857  plane waves:    1708
 k-point 116 :  -0.1429-0.2857 0.2857  plane waves:    1723
 k-point 117 :  -0.0000-0.1429 0.2857  plane waves:    1721
 k-point 118 :   0.1429-0.1429 0.2857  plane waves:    1728
 k-point 119 :   0.2857-0.1429 0.2857  plane waves:    1721
 k-point 120 :   0.4286-0.1429 0.2857  plane waves:    1718
 k-point 121 :  -0.4286-0.1429 0.2857  plane waves:    1718
 k-point 122 :  -0.2857-0.1429 0.2857  plane waves:    1721
 k-point 123 :  -0.1429-0.1429 0.2857  plane waves:    1728
 k-point 124 :  -0.0000-0.0000 0.4286  plane waves:    1719
 k-point 125 :   0.1429-0.0000 0.4286  plane waves:    1716
 k-point 126 :   0.2857-0.0000 0.4286  plane waves:    1710
 k-point 127 :   0.4286-0.0000 0.4286  plane waves:    1702
 k-point 128 :  -0.4286 0.0000 0.4286  plane waves:    1702
 k-point 129 :  -0.2857 0.0000 0.4286  plane waves:    1710
 k-point 130 :  -0.1429 0.0000 0.4286  plane waves:    1715
 k-point 131 :   0.0000 0.1429 0.4286  plane waves:    1716
 k-point 132 :   0.1429 0.1429 0.4286  plane waves:    1719
 k-point 133 :   0.2857 0.1429 0.4286  plane waves:    1718
 k-point 134 :   0.4286 0.1429 0.4286  plane waves:    1704
 k-point 135 :  -0.4286 0.1429 0.4286  plane waves:    1704
 k-point 136 :  -0.2857 0.1429 0.4286  plane waves:    1718
 k-point 137 :  -0.1429 0.1429 0.4286  plane waves:    1719
 k-point 138 :   0.0000 0.2857 0.4286  plane waves:    1710
 k-point 139 :   0.1429 0.2857 0.4286  plane waves:    1718
 k-point 140 :   0.2857 0.2857 0.4286  plane waves:    1712
 k-point 141 :   0.4286 0.2857 0.4286  plane waves:    1713
 k-point 142 :  -0.4286 0.2857 0.4286  plane waves:    1713
 k-point 143 :  -0.2857 0.2857 0.4286  plane waves:    1714
 k-point 144 :  -0.1429 0.2857 0.4286  plane waves:    1718
 k-point 145 :   0.0000 0.4286 0.4286  plane waves:    1702
 k-point 146 :   0.1429 0.4286 0.4286  plane waves:    1704
 k-point 147 :   0.2857 0.4286 0.4286  plane waves:    1713
 k-point 148 :   0.4286 0.4286 0.4286  plane waves:    1712
 k-point 149 :  -0.4286 0.4286 0.4286  plane waves:    1712
 k-point 150 :  -0.2857 0.4286 0.4286  plane waves:    1713
 k-point 151 :  -0.1429 0.4286 0.4286  plane waves:    1704
 k-point 152 :   0.0000-0.4286 0.4286  plane waves:    1702
 k-point 153 :   0.1429-0.4286 0.4286  plane waves:    1704
 k-point 154 :   0.2857-0.4286 0.4286  plane waves:    1713
 k-point 155 :   0.4286-0.4286 0.4286  plane waves:    1712
 k-point 156 :  -0.4286-0.4286 0.4286  plane waves:    1712
 k-point 157 :  -0.2857-0.4286 0.4286  plane waves:    1713
 k-point 158 :  -0.1429-0.4286 0.4286  plane waves:    1704
 k-point 159 :  -0.0000-0.2857 0.4286  plane waves:    1710
 k-point 160 :   0.1429-0.2857 0.4286  plane waves:    1718
 k-point 161 :   0.2857-0.2857 0.4286  plane waves:    1712
 k-point 162 :   0.4286-0.2857 0.4286  plane waves:    1713
 k-point 163 :  -0.4286-0.2857 0.4286  plane waves:    1713
 k-point 164 :  -0.2857-0.2857 0.4286  plane waves:    1714
 k-point 165 :  -0.1429-0.2857 0.4286  plane waves:    1718
 k-point 166 :   0.0000-0.1429 0.4286  plane waves:    1716
 k-point 167 :   0.1429-0.1429 0.4286  plane waves:    1719
 k-point 168 :   0.2857-0.1429 0.4286  plane waves:    1718
 k-point 169 :   0.4286-0.1429 0.4286  plane waves:    1704
 k-point 170 :  -0.4286-0.1429 0.4286  plane waves:    1704
 k-point 171 :  -0.2857-0.1429 0.4286  plane waves:    1718
 k-point 172 :  -0.1429-0.1429 0.4286  plane waves:    1719

 maximum and minimum number of plane-waves per node :       453      410

 maximum number of plane-waves:      1743
 maximum index in each direction: 
   IXMAX=    7   IYMAX=    7   IZMAX=    7
   IXMIN=   -7   IYMIN=   -7   IZMIN=   -7


 parallel 3D FFT for wavefunctions:
    minimum data exchange during FFTs selected (reduces bandwidth)
 parallel 3D FFT for charge:
    minimum data exchange during FFTs selected (reduces bandwidth)


 total amount of memory used by VASP MPI-rank0    65982. kBytes
=======================================================================

   base      :      30000. kBytes
   nonl-proj :      23647. kBytes
   fftplans  :       1936. kBytes
   grid      :       5304. kBytes
   one-center:         32. kBytes
   wavefun   :       5063. kBytes
 
     INWAV:  cpu time    0.8016: real time    0.9681
 Broyden mixing: mesh for mixing (old mesh)
   NGX = 15   NGY = 15   NGZ = 15
  (NGX  =100   NGY  =100   NGZ  =100)
  gives a total of   3375 points

 charge density for first step will be calculated from the start-wavefunctions


--------------------------------------------------------------------------------------------------------


 Maximum index for augmentation-charges         3390 (set IRDMAX)


--------------------------------------------------------------------------------------------------------


 initial charge from wavefunction
 First call to EWALD:  gamma=   0.444
 Maximum number of real-space cells 3x 3x 3
 Maximum number of reciprocal cells 3x 3x 3

    FEWALD:  cpu time    0.0021: real time    0.0034


--------------------------------------- Iteration      1(   1)  ---------------------------------------


    POTLOK:  cpu time    0.0343: real time    0.0377
    SETDIJ:  cpu time    0.0105: real time    0.0105
     EDDAV:  cpu time    1.9285: real time    1.9363
 BZINTS: Fermi energy:    2.346043;   16.000000 electrons
         Band energy:-0.777465E+02;  BLOECHL correction:    0.000000
       DOS:  cpu time    0.0498: real time    0.0500
    CHARGE:  cpu time    0.1101: real time    0.1104
    MIXING:  cpu time    0.0015: real time    0.0016
    --------------------------------------------
      LOOP:  cpu time    2.1347: real time    2.1465

 eigenvalue-minimisations  :  8220
 total energy-change (2. order) :-0.2045950E+02  (-0.8612400E-06)
 number of electron      16.0000000 magnetization      -0.0000000
 augmentation part        0.2070927 magnetization      -0.0000081

 Broyden mixing:
  rms(total) = 0.34000E-03    rms(broyden)= 0.33996E-03
  rms(prec ) = 0.88435E-03
  weight for this iteration     100.00

 Free energy of the ion-electron system (eV)
  ---------------------------------------------------
  alpha Z        PSCENC =        22.84022444
  Ewald energy   TEWEN  =      -622.62619064
  -Hartree energ DENC   =      -326.95214564
  -exchange      EXHF   =         0.00000000
  -V(xc)+E(xc)   XCENC  =        26.48448998
  PAW double counting   =      1034.32978432    -1009.43251866
  entropy T*S    EENTRO =         0.00000000
  eigenvalues    EBANDS =       -77.74646886
  atomic energy  EATOM  =       932.64332097
  Solvation  Ediel_sol  =         0.00000000
  ---------------------------------------------------
  free energy    TOTEN  =       -20.45950409 eV

  energy without entropy =      -20.45950409  energy(sigma->0) =      -20.45950409


--------------------------------------------------------------------------------------------------------




--------------------------------------- Iteration      1(   2)  ---------------------------------------


    POTLOK:  cpu time    0.0333: real time    0.0341
    SETDIJ:  cpu time    0.0102: real time    0.0102
     EDDAV:  cpu time    1.7871: real time    1.7926
 BZINTS: Fermi energy:    2.345519;   16.000000 electrons
         Band energy:-0.777544E+02;  BLOECHL correction:    0.000000
       DOS:  cpu time    0.0461: real time    0.0463
    CHARGE:  cpu time    0.1094: real time    0.1097
    MIXING:  cpu time    0.0010: real time    0.0011
    --------------------------------------------
      LOOP:  cpu time    1.9871: real time    1.9939

 eigenvalue-minimisations  :  7350
 total energy-change (2. order) : 0.5334000E-06  (-0.6313833E-07)
 number of electron      16.0000000 magnetization       0.0000000
 augmentation part        0.2070924 magnetization       0.0000008

 Broyden mixing:
  rms(total) = 0.10729E-03    rms(broyden)= 0.10728E-03
  rms(prec ) = 0.32273E-03
  weight for this iteration     100.00

 eigenvalues of (default mixing * dielectric matrix)
  average eigenvalue GAMMA=   1.1914
  1.1914

 Free energy of the ion-electron system (eV)
  ---------------------------------------------------
  alpha Z        PSCENC =        22.84022444
  Ewald energy   TEWEN  =      -622.62619064
  -Hartree energ DENC   =      -326.94398438
  -exchange      EXHF   =         0.00000000
  -V(xc)+E(xc)   XCENC  =        26.48390457
  PAW double counting   =      1034.29442786    -1009.39685277
  entropy T*S    EENTRO =         0.00000000
  eigenvalues    EBANDS =       -77.75435361
  atomic energy  EATOM  =       932.64332097
  Solvation  Ediel_sol  =         0.00000000
  ---------------------------------------------------
  free energy    TOTEN  =       -20.45950356 eV

[...]
      5      -3.5054      1.00000
      6      -0.0068      1.00000
      7       0.6844      1.00000
      8       2.1612      1.00000
      9       6.7783      0.00000
     10       7.3071      0.00000
     11       8.9969      0.00000
     12       9.7889      0.00000
     13      10.5262      0.00000
     14      12.2367      0.00000
     15      13.2811      0.00000
     16      13.7662      0.00000
     17      14.8590      0.00000
     18      15.1396      0.00000
     19      16.2353      0.00000
     20      17.0051      0.00000

 k-point   160 :       0.1429   -0.2857    0.4286
  band No.  band energies     occupation 
      1     -21.7650      1.00000
      2      -8.8508      1.00000
      3      -3.6407      1.00000
      4      -3.5559      1.00000
      5      -3.5010      1.00000
      6      -0.0035      1.00000
      7       0.6138      1.00000
      8       1.5843      1.00000
      9       7.2518      0.00000
     10       7.6907      0.00000
     11       8.8993      0.00000
     12       9.5502      0.00000
     13      10.6061      0.00000
     14      12.1230      0.00000
     15      13.6071      0.00000
     16      13.8688      0.00000
     17      14.4319      0.00000
     18      15.2634      0.00000
     19      16.7817      0.00000
     20      17.3559      0.00000

 k-point   161 :       0.2857   -0.2857    0.4286
  band No.  band energies     occupation 
      1     -21.7739      1.00000
      2      -8.7231      1.00000
      3      -3.5855      1.00000
      4      -3.5056      1.00000
      5      -3.5018      1.00000
      6      -0.0065      1.00000
      7       0.3634      1.00000
      8       0.7870      1.00000
      9       7.2076      0.00000
     10       8.6025      0.00000
     11       8.7462      0.00000
     12      10.0907      0.00000
     13      10.6131      0.00000
     14      11.7463      0.00000
     15      12.8838      0.00000
     16      14.6792      0.00000
     17      15.4107      0.00000
     18      15.7083      0.00000
     19      17.1326      0.00000
     20      17.7073      0.00000

 k-point   162 :       0.4286   -0.2857    0.4286
  band No.  band energies     occupation 
      1     -21.7810      1.00000
      2      -8.6129      1.00000
      3      -3.5284      1.00000
      4      -3.5258      1.00000
      5      -3.4704      1.00000
      6      -0.0282      1.00000
      7      -0.0235      1.00000
      8       0.5395      1.00000
      9       7.2139      0.00000
     10       8.6133      0.00000
     11       8.6640      0.00000
     12       9.9920      0.00000
     13      11.2248      0.00000
     14      12.3113      0.00000
     15      12.3566      0.00000
     16      15.8292      0.00000
     17      15.9995      0.00000
     18      16.6376      0.00000
     19      17.1981      0.00000
     20      17.2544      0.00000

 k-point   163 :      -0.4286   -0.2857    0.4286
  band No.  band energies     occupation 
      1     -21.7810      1.00000
      2      -8.6129      1.00000
      3      -3.5289      1.00000
      4      -3.5254      1.00000
      5      -3.4704      1.00000
      6      -0.0277      1.00000
      7      -0.0240      1.00000
      8       0.5398      1.00000
      9       7.2146      0.00000
     10       8.6143      0.00000
     11       8.6619      0.00000
     12       9.9919      0.00000
     13      11.2254      0.00000
     14      12.3133      0.00000
     15      12.3542      0.00000
     16      15.8319      0.00000
     17      16.0002      0.00000
     18      16.6389      0.00000
     19      17.1958      0.00000
     20      17.2504      0.00000

 k-point   164 :      -0.2857   -0.2857    0.4286
  band No.  band energies     occupation 
      1     -21.7739      1.00000
      2      -8.7231      1.00000
      3      -3.5856      1.00000
      4      -3.5059      1.00000
      5      -3.5016      1.00000
      6      -0.0063      1.00000
      7       0.3634      1.00000
      8       0.7873      1.00000
      9       7.2088      0.00000
     10       8.6025      0.00000
     11       8.7451      0.00000
     12      10.0904      0.00000
     13      10.6123      0.00000
     14      11.7458      0.00000
     15      12.8857      0.00000
     16      14.6797      0.00000
     17      15.4133      0.00000
     18      15.7080      0.00000
     19      17.1299      0.00000
     20      17.7044      0.00000

 k-point   165 :      -0.1429   -0.2857    0.4286
  band No.  band energies     occupation 
      1     -21.7650      1.00000
      2      -8.8508      1.00000
      3      -3.6407      1.00000
      4      -3.5559      1.00000
      5      -3.5011      1.00000
      6      -0.0033      1.00000
      7       0.6140      1.00000
      8       1.5844      1.00000
      9       7.2524      0.00000
     10       7.6915      0.00000
     11       8.8984      0.00000
     12       9.5493      0.00000
     13      10.6059      0.00000
     14      12.1222      0.00000
     15      13.6065      0.00000
     16      13.8717      0.00000
     17      14.4329      0.00000
     18      15.2636      0.00000
     19      16.7802      0.00000
     20      17.3536      0.00000

 k-point   166 :       0.0000   -0.1429    0.4286
  band No.  band energies     occupation 
      1     -21.7521      1.00000
      2      -9.0290      1.00000
      3      -3.6359      1.00000
      4      -3.6101      1.00000
      5      -3.3964      1.00000
      6      -0.2711      1.00000
      7       1.4252      1.00000
      8       1.9610      1.00000
      9       7.1505      0.00000
     10       8.3333      0.00000
     11       8.4144      0.00000
     12       9.0852      0.00000
     13      11.2449      0.00000
     14      11.4170      0.00000
     15      12.7330      0.00000
     16      13.5979      0.00000
     17      14.1436      0.00000
     18      15.8312      0.00000
     19      16.5478      0.00000
     20      16.6749      0.00000

 k-point   167 :       0.1429   -0.1429    0.4286
  band No.  band energies     occupation 
      1     -21.7561      1.00000
      2      -8.9763      1.00000
      3      -3.6450      1.00000
      4      -3.5852      1.00000
      5      -3.4232      1.00000
      6      -0.1905      1.00000
      7       1.2958      1.00000
      8       1.6294      1.00000
      9       7.7122      0.00000
     10       7.9681      0.00000
     11       8.5428      0.00000
     12       9.0530      0.00000
     13      10.7003      0.00000
     14      11.7627      0.00000
     15      12.9796      0.00000
     16      13.8743      0.00000
     17      14.3260      0.00000
     18      15.0692      0.00000
     19      16.6705      0.00000
     20      17.4563      0.00000

 k-point   168 :       0.2857   -0.1429    0.4286
  band No.  band energies     occupation 
      1     -21.7649      1.00000
      2      -8.8511      1.00000
      3      -3.6406      1.00000
      4      -3.5565      1.00000
      5      -3.5011      1.00000
      6      -0.0035      1.00000
      7       0.6138      1.00000
      8       1.5858      1.00000
      9       7.2504      0.00000
     10       7.6953      0.00000
     11       8.9017      0.00000
     12       9.5511      0.00000
     13      10.6006      0.00000
     14      12.1232      0.00000
     15      13.6073      0.00000
     16      13.8712      0.00000
     17      14.4348      0.00000
     18      15.2587      0.00000
     19      16.7833      0.00000
     20      17.3555      0.00000

 k-point   169 :       0.4286   -0.1429    0.4286
  band No.  band energies     occupation 
      1     -21.7719      1.00000
      2      -8.7428      1.00000
      3      -3.6292      1.00000
      4      -3.5974      1.00000
      5      -3.5318      1.00000
      6       0.1359      1.00000
      7       0.1824      1.00000
      8       1.6247      1.00000
      9       6.7771      0.00000
     10       7.6293      0.00000
     11       8.8098      0.00000
     12       8.9207      0.00000
     13      12.2692      0.00000
     14      12.6623      0.00000
     15      13.1353      0.00000
     16      14.5752      0.00000
     17      14.7464      0.00000
     18      16.2041      0.00000
     19      16.3848      0.00000
     20      16.8785      0.00000

 k-point   170 :      -0.4286   -0.1429    0.4286
  band No.  band energies     occupation 
      1     -21.7719      1.00000
      2      -8.7428      1.00000
      3      -3.6296      1.00000
      4      -3.5971      1.00000
      5      -3.5318      1.00000
      6       0.1365      1.00000
      7       0.1818      1.00000
      8       1.6247      1.00000
      9       6.7773      0.00000
     10       7.6296      0.00000
     11       8.8081      0.00000
     12       8.9218      0.00000
     13      12.2703      0.00000
     14      12.6595      0.00000
     15      13.1371      0.00000
     16      14.5779      0.00000
     17      14.7448      0.00000
     18      16.2070      0.00000
     19      16.3830      0.00000
     20      16.8741      0.00000

 k-point   171 :      -0.2857   -0.1429    0.4286
  band No.  band energies     occupation 
      1     -21.7649      1.00000
      2      -8.8511      1.00000
      3      -3.6407      1.00000
      4      -3.5567      1.00000
      5      -3.5009      1.00000
      6      -0.0033      1.00000
      7       0.6137      1.00000
      8       1.5859      1.00000
      9       7.2510      0.00000
     10       7.6958      0.00000
     11       8.9006      0.00000
     12       9.5510      0.00000
     13      10.6011      0.00000
     14      12.1219      0.00000
     15      13.6077      0.00000
     16      13.8719      0.00000
     17      14.4359      0.00000
     18      15.2597      0.00000
     19      16.7802      0.00000
     20      17.3533      0.00000

 k-point   172 :      -0.1429   -0.1429    0.4286
  band No.  band energies     occupation 
      1     -21.7561      1.00000
      2      -8.9763      1.00000
      3      -3.6449      1.00000
      4      -3.5854      1.00000
      5      -3.4231      1.00000
      6      -0.1904      1.00000
      7       1.2962      1.00000
      8       1.6291      1.00000
      9       7.7121      0.00000
     10       7.9695      0.00000
     11       8.5430      0.00000
     12       9.0516      0.00000
     13      10.7009      0.00000
     14      11.7619      0.00000
     15      12.9775      0.00000
     16      13.8757      0.00000
     17      14.3260      0.00000
     18      15.0713      0.00000
     19      16.6690      0.00000
     20      17.4573      0.00000


--------------------------------------------------------------------------------------------------------


 soft charge-density along one line, spin component           1
         0         1         2         3         4         5         6         7         8         9
 total charge-density along one line
 
 soft charge-density along one line, spin component           2
         0         1         2         3         4         5         6         7         8         9
 total charge-density along one line
 
 pseudopotential strength for first ion, spin component:           1
  1.168   5.267   0.000   0.000   0.000
  5.267  22.669   0.000   0.000   0.000
  0.000   0.000  -0.389  -0.000   0.000
  0.000   0.000  -0.000  -0.388   0.000
  0.000   0.000   0.000   0.000  -0.389
 pseudopotential strength for first ion, spin component:           2
  1.168   5.267   0.000   0.000   0.000
  5.267  22.669   0.000   0.000   0.000
  0.000   0.000  -0.389  -0.000   0.000
  0.000   0.000  -0.000  -0.388   0.000
  0.000   0.000   0.000   0.000  -0.389
 total augmentation occupancy for first ion, spin component:           1
  0.797  -0.018  -0.000  -0.001  -0.001
 -0.018   0.000   0.000   0.000   0.000
 -0.000   0.000   0.061  -0.000   0.000
 -0.001   0.000  -0.000   0.088   0.000
 -0.001   0.000   0.000   0.000   0.061
 total augmentation occupancy for first ion, spin component:           2
 -0.000  -0.000   0.000   0.000  -0.000
 -0.000   0.000  -0.000  -0.000   0.000
  0.000  -0.000  -0.000  -0.000  -0.000
  0.000  -0.000  -0.000  -0.000   0.000
 -0.000   0.000  -0.000   0.000  -0.000


------------------------ aborting loop because EDIFF is reached ----------------------------------------





 total charge

# of ion       s       p       d       tot
------------------------------------------
    1        0.079   0.153   0.000   0.231
    2        0.079   0.153   0.000   0.232
    3        0.079   0.153   0.000   0.232
    4        1.425   2.471   0.005   3.902
    5        1.733   4.395   0.000   6.128
--------------------------------------------------
tot          3.395   7.325   0.005  10.724



 magnetization (x)

# of ion       s       p       d       tot
------------------------------------------
    1        0.000   0.000   0.000   0.000
    2        0.000   0.000   0.000   0.000
    3        0.000   0.000   0.000   0.000
    4        0.000  -0.000  -0.000   0.000
    5       -0.000  -0.000   0.000  -0.000
--------------------------------------------------
tot          0.000  -0.000  -0.000   0.000
 
    CHARGE:  cpu time    0.1075: real time    0.1078
    FORLOC:  cpu time    0.0015: real time    0.0015
    FORNL :  cpu time    0.1025: real time    0.1028
    STRESS:  cpu time    0.4878: real time    0.4897
    FORCOR:  cpu time    0.0300: real time    0.0302
    FORHAR:  cpu time    0.0039: real time    0.0040
    MIXING:  cpu time    0.0008: real time    0.0008
    OFIELD:  cpu time    0.0001: real time    0.0001

  FORCE on cell =-STRESS in cart. coord.  units (eV):
  Direction    XX          YY          ZZ          XY          YZ          ZX
  --------------------------------------------------------------------------------------
  Alpha Z    22.84022    22.84022    22.84022
  Ewald    -207.54083  -207.46130  -207.62425     0.00968     0.00449    -0.01759
  Hartree   108.98189   109.00073   108.95966     0.00807     0.00853    -0.01570
  E(xc)     -69.64504   -69.64543   -69.64462    -0.00004     0.00001     0.00007
  Local    -119.61179  -119.70754  -119.50857    -0.01810    -0.01382     0.03407
  n-local     6.24072     6.24307     6.23871     0.00037    -0.00017    -0.00053
  augment    14.02114    14.02017    14.02207     0.00009     0.00016    -0.00019
  Kinetic   244.74270   244.74977   244.73285     0.00168     0.00205    -0.00327
  Fock        0.00000     0.00000     0.00000     0.00000     0.00000     0.00000
  -------------------------------------------------------------------------------------
  Total       0.02901     0.03969     0.01607     0.00174     0.00126    -0.00313
  in kB       0.72863     0.99688     0.40362     0.04376     0.03156    -0.07865
  external pressure =        0.71 kB  Pullay stress =        0.00 kB


 VOLUME and BASIS-vectors are now :
 -----------------------------------------------------------------------------
  energy-cutoff  :      520.00
  volume of cell :       63.80
      direct lattice vectors                 reciprocal lattice vectors
     3.995573831 -0.000221273  0.000432059     0.250276946  0.000013826 -0.000027024
    -0.000220667  3.994130823 -0.000249174     0.000013864  0.250367364  0.000015505
     0.000431644 -0.000247586  3.997502481    -0.000027050  0.000015604  0.250156196

  length of vectors
     3.995573860  3.994130837  3.997502512     0.250276948  0.250367365  0.250156198


 FORCES acting on ions
    electron-ion (+dipol)            ewald-force                    non-local-force                 convergence-correction
 -----------------------------------------------------------------------------------------------
   -.104E-01 0.217E-01 -.111E+00   0.813E-03 -.250E-01 0.993E-01   0.135E-01 0.328E-02 0.110E-01   0.162E-07 -.176E-07 -.245E-07
   -.144E-01 -.444E-01 -.226E-01   0.630E-02 0.466E-01 0.161E-01   0.110E-01 0.632E-02 0.867E-02   0.163E-07 0.159E-07 0.263E-07
   -.701E-01 -.300E-01 0.140E-01   0.632E-01 0.440E-01 -.328E-01   0.745E-02 -.256E-01 0.292E-01   -.155E-07 -.160E-07 0.252E-07
   0.162E+00 -.103E+00 0.214E+00   -.166E+00 0.109E+00 -.221E+00   -.162E-02 -.449E-02 0.806E-03   -.549E-06 0.567E-06 -.867E-06
   -.102E+00 0.110E+00 -.131E+00   0.957E-01 -.174E+00 0.139E+00   0.438E-02 0.667E-01 -.123E-01   0.855E-06 -.729E-06 0.132E-05
 -----------------------------------------------------------------------------------------------
   -.347E-01 -.462E-01 -.375E-01   0.583E-15 0.250E-15 0.278E-15   0.347E-01 0.462E-01 0.374E-01   0.323E-06 -.180E-06 0.477E-06
 
 
 POSITION                                       TOTAL-FORCE (eV/Angst)
 -----------------------------------------------------------------------------------
      1.97692      2.00252      3.98713         0.003904      0.000030     -0.001090
      1.97785      0.00723      1.98921         0.002884      0.008503      0.002155
      3.97681      2.01463      1.98070         0.000568     -0.011622      0.010396
      3.98050      0.00727      3.99170        -0.005783      0.000788     -0.006404
      1.98070      2.00487      1.99094        -0.001572      0.002301     -0.005057
 -----------------------------------------------------------------------------------
    total drift:                               -0.000025      0.000089     -0.000100


--------------------------------------------------------------------------------------------------------



  FREE ENERGIE OF THE ION-ELECTRON SYSTEM (eV)
  ---------------------------------------------------
  free  energy   TOTEN  =       -20.45950344 eV

  energy  without entropy=      -20.45950344  energy(sigma->0) =      -20.45950344
 


--------------------------------------------------------------------------------------------------------


    POTLOK:  cpu time    0.0416: real time    0.0417


--------------------------------------------------------------------------------------------------------


 writing wavefunctions
     LOOP+:  cpu time   18.7386: real time   19.9892
    4ORBIT:  cpu time    0.0000: real time    0.0000



 total charge

# of ion       s       p       d       tot
------------------------------------------
    1        0.079   0.153   0.000   0.231
    2        0.079   0.153   0.000   0.232
    3        0.079   0.153   0.000   0.232
    4        1.425   2.471   0.005   3.902
    5        1.733   4.395   0.000   6.128
--------------------------------------------------
tot          3.395   7.325   0.005  10.724



 magnetization (x)

# of ion       s       p       d       tot
------------------------------------------
    1        0.000   0.000   0.000   0.000
    2        0.000   0.000   0.000   0.000
    3        0.000   0.000   0.000   0.000
    4        0.000  -0.000  -0.000   0.000
    5       -0.000  -0.000   0.000  -0.000
--------------------------------------------------
tot          0.000  -0.000  -0.000   0.000
 
 BZINTS: Fermi energy:    2.345094;   16.000000 electrons
         Band energy:-0.777559E+02;  BLOECHL correction:    0.000000

 total amount of memory used by VASP MPI-rank0    65982. kBytes
=======================================================================

   base      :      30000. kBytes
   nonl-proj :      23647. kBytes
   fftplans  :       1936. kBytes
   grid      :       5304. kBytes
   one-center:         32. kBytes
   wavefun   :       5063. kBytes
 
  
  
 General timing and accounting informations for this job:
 ========================================================
  
                  Total CPU time used (sec):       28.419
                            User time (sec):       25.523
                          System time (sec):        2.896
                         Elapsed time (sec):       31.371
  
                   Maximum memory used (kb):      205436.
                   Average memory used (kb):          N/A
  
                          Minor page faults:        40854
                          Major page faults:            0
                 Voluntary context switches:        10029
